 vasp.6.4.3 19Mar24 (build Jun 19 2024 20:28:10) complex                         
 executed on             LinuxGNU date 2025.01.14  19:56:08
 running   64 mpi-ranks, with    1 threads/rank, on    1 nodes
 distrk:  each k-point on   64 cores,    1 groups
 distr:  one band on NCORE=   4 cores,   16 groups


--------------------------------------------------------------------------------------------------------


 INCAR:
   ENCUT = 500
   EDIFF = 1E-6
   ISMEAR = 0
   SIGMA = 0.05
   ISYM = 0
   ISPIN = 2
   NUPDOWN = 2
   NCORE = 4

 POTCAR:    PAW_PBE B 06Sep2000                   
 POTCAR:    PAW_PBE N 08Apr2002                   
 POTCAR:    PAW_PBE C 08Apr2002                   
 -----------------------------------------------------------------------------
|                                                                             |
|           W    W    AA    RRRRR   N    N  II  N    N   GGGG   !!!           |
|           W    W   A  A   R    R  NN   N  II  NN   N  G    G  !!!           |
|           W    W  A    A  R    R  N N  N  II  N N  N  G       !!!           |
|           W WW W  AAAAAA  RRRRR   N  N N  II  N  N N  G  GGG   !            |
|           WW  WW  A    A  R   R   N   NN  II  N   NN  G    G                |
|           W    W  A    A  R    R  N    N  II  N    N   GGGG   !!!           |
|                                                                             |
|     You use a magnetic or noncollinear calculation, but did not specify     |
|     the initial magnetic moment with the MAGMOM tag. Note that a            |
|     default of 0.021 will be used for all atoms. This ferromagnetic         |
|     setup may break the symmetry of the crystal, in particular it may       |
|     rule out finding an antiferromagnetic solution. Thence, we              |
|     recommend setting the initial magnetic moment manually or verifying     |
|     carefully that this magnetic setup is desired.                          |
|                                                                             |
 -----------------------------------------------------------------------------

 POTCAR:    PAW_PBE B 06Sep2000                   
   SHA256 =  a32ced30f5ae56fd4d10b4325ff17eb3e4e38ee0f4288bc219fb012fddfa6e97 B/POTCAR              
   COPYR  = (c) Copyright 06Sep2000 Georg Kresse                                                    
   COPYR  = This file is part of the software VASP. Any use, copying, and all other rights are regul
   COPYR  = If you do not have a valid VASP license, you may not use, copy or distribute this file. 
   VRHFIN =B: s2p1                                                                                  
   LEXCH  = PE                                                                                      
   EATOM  =    71.1703 eV,    5.2309 Ry                                                             
                                                                                                    
   TITEL  = PAW_PBE B 06Sep2000                                                                     
   LULTRA =        F    use ultrasoft PP ?                                                          
   IUNSCR =        1    unscreen: 0-lin 1-nonlin 2-no                                               
   RPACOR =    1.200    partial core radius                                                         
   POMASS =   10.811; ZVAL   =    3.000    mass and valenz                                          
   RCORE  =    1.700    outmost cutoff radius                                                       
   RWIGS  =    1.710; RWIGS  =    0.905    wigner-seitz radius (au A)                               
   ENMAX  =  318.614; ENMIN  =  238.960 eV                                                          
   ICORE  =        2    local potential                                                             
   LCOR   =        T    correct aug charges                                                         
   LPAW   =        T    paw PP                                                                      
   EAUG   =  535.514                                                                                
   DEXC   =    0.000                                                                                
   RMAX   =    1.732    core radius for proj-oper                                                   
   RAUG   =    1.300    factor for augmentation sphere                                              
   RDEP   =    1.757    radius for radial grids                                                     
   RDEPT  =    1.436    core radius for aug-charge                                                  
                                                                                                    
   Atomic configuration                                                                             
    4 entries                                                                                       
     n  l   j            E        occ.                                                              
     1  0  0.50      -180.5896   2.0000                                                             
     2  0  0.50        -9.4431   2.0000                                                             
     2  1  0.50        -3.6068   1.0000                                                             
     3  2  1.50        -4.0817   0.0000                                                             
   Description                                                                                      
     l       E           TYP  RCUT    TYP  RCUT                                                     
     0     -9.4430752     23  1.500                                                                 
     0      0.8675899     23  1.500                                                                 
     1     -3.6067955     23  1.700                                                                 
     1      6.1086146     23  1.700                                                                 
     2     -4.0817478      7  1.700                                                                 
  local pseudopotential read in
  partial core-charges read in
  partial kinetic energy density read in
  atomic valenz-charges read in
  non local Contribution for L=           0  read in
    real space projection operators read in
  non local Contribution for L=           0  read in
    real space projection operators read in
  non local Contribution for L=           1  read in
    real space projection operators read in
  non local Contribution for L=           1  read in
    real space projection operators read in
    PAW grid and wavefunctions read in

   number of l-projection  operators is LMAX  =           4
   number of lm-projection operators is LMMAX =           8

 POTCAR:    PAW_PBE N 08Apr2002                   
   SHA256 =  e053789ff3a61a86a1b75d8a110fcc91f86041011e7b0817c7c99e4e8a6349d7 N/POTCAR              
   COPYR  = (c) Copyright 08Apr2002 Georg Kresse                                                    
   COPYR  = This file is part of the software VASP. Any use, copying, and all other rights are regul
   COPYR  = If you do not have a valid VASP license, you may not use, copy or distribute this file. 
   VRHFIN =N: s2p3                                                                                  
   LEXCH  = PE                                                                                      
   EATOM  =   264.5486 eV,   19.4438 Ry                                                             
                                                                                                    
   TITEL  = PAW_PBE N 08Apr2002                                                                     
   LULTRA =        F    use ultrasoft PP ?                                                          
   IUNSCR =        1    unscreen: 0-lin 1-nonlin 2-no                                               
   RPACOR =    1.200    partial core radius                                                         
   POMASS =   14.001; ZVAL   =    5.000    mass and valenz                                          
   RCORE  =    1.500    outmost cutoff radius                                                       
   RWIGS  =    1.400; RWIGS  =    0.741    wigner-seitz radius (au A)                               
   ENMAX  =  400.000; ENMIN  =  300.000 eV                                                          
   ICORE  =        2    local potential                                                             
   LCOR   =        T    correct aug charges                                                         
   LPAW   =        T    paw PP                                                                      
   EAUG   =  627.112                                                                                
   DEXC   =    0.000                                                                                
   RMAX   =    1.529    core radius for proj-oper                                                   
   RAUG   =    1.300    factor for augmentation sphere                                              
   RDEP   =    1.514    radius for radial grids                                                     
   RDEPT  =    1.338    core radius for aug-charge                                                  
                                                                                                    
   Atomic configuration                                                                             
    4 entries                                                                                       
     n  l   j            E        occ.                                                              
     1  0  0.50      -384.7179   2.0000                                                             
     2  0  0.50       -18.5828   2.0000                                                             
     2  1  0.50        -7.0898   3.0000                                                             
     3  2  1.50        -6.8029   0.0000                                                             
   Description                                                                                      
     l       E           TYP  RCUT    TYP  RCUT                                                     
     0    -18.5828119     23  1.200                                                                 
     0    -13.5018863     23  1.200                                                                 
     1     -7.0897853     23  1.500                                                                 
     1      9.5240782     23  1.500                                                                 
     2     -6.8029130      7  1.500                                                                 
  local pseudopotential read in
  partial core-charges read in
  partial kinetic energy density read in
  atomic valenz-charges read in
  non local Contribution for L=           0  read in
    real space projection operators read in
  non local Contribution for L=           0  read in
    real space projection operators read in
  non local Contribution for L=           1  read in
    real space projection operators read in
  non local Contribution for L=           1  read in
    real space projection operators read in
    PAW grid and wavefunctions read in

   number of l-projection  operators is LMAX  =           4
   number of lm-projection operators is LMMAX =           8

 POTCAR:    PAW_PBE C 08Apr2002                   
   SHA256 =  253f7b50bb8d59471dbedb8285d89021f4a42ed1a2c5d38a03a736e69125dd95 C/POTCAR              
   COPYR  = (c) Copyright 08Apr2002 Georg Kresse                                                    
   COPYR  = This file is part of the software VASP. Any use, copying, and all other rights are regul
   COPYR  = If you do not have a valid VASP license, you may not use, copy or distribute this file. 
   VRHFIN =C: s2p2                                                                                  
   LEXCH  = PE                                                                                      
   EATOM  =   147.1560 eV,   10.8157 Ry                                                             
                                                                                                    
   TITEL  = PAW_PBE C 08Apr2002                                                                     
   LULTRA =        F    use ultrasoft PP ?                                                          
   IUNSCR =        1    unscreen: 0-lin 1-nonlin 2-no                                               
   RPACOR =    1.200    partial core radius                                                         
   POMASS =   12.011; ZVAL   =    4.000    mass and valenz                                          
   RCORE  =    1.500    outmost cutoff radius                                                       
   RWIGS  =    1.630; RWIGS  =    0.863    wigner-seitz radius (au A)                               
   ENMAX  =  400.000; ENMIN  =  300.000 eV                                                          
   ICORE  =        2    local potential                                                             
   LCOR   =        T    correct aug charges                                                         
   LPAW   =        T    paw PP                                                                      
   EAUG   =  644.873                                                                                
   DEXC   =    0.000                                                                                
   RMAX   =    1.529    core radius for proj-oper                                                   
   RAUG   =    1.300    factor for augmentation sphere                                              
   RDEP   =    1.501    radius for radial grids                                                     
   RDEPT  =    1.300    core radius for aug-charge                                                  
                                                                                                    
   Atomic configuration                                                                             
    4 entries                                                                                       
     n  l   j            E        occ.                                                              
     1  0  0.50      -273.3789   2.0000                                                             
     2  0  0.50       -13.7508   2.0000                                                             
     2  1  0.50        -5.2854   2.0000                                                             
     3  2  1.50        -5.4423   0.0000                                                             
   Description                                                                                      
     l       E           TYP  RCUT    TYP  RCUT                                                     
     0    -13.7508458     23  1.200                                                                 
     0     -8.2022199     23  1.200                                                                 
     1     -5.2854383     23  1.500                                                                 
     1     34.0145650     23  1.500                                                                 
     2     -5.4423304      7  1.500                                                                 
  local pseudopotential read in
  partial core-charges read in
  partial kinetic energy density read in
  atomic valenz-charges read in
  non local Contribution for L=           0  read in
    real space projection operators read in
  non local Contribution for L=           0  read in
    real space projection operators read in
  non local Contribution for L=           1  read in
    real space projection operators read in
  non local Contribution for L=           1  read in
    real space projection operators read in
    PAW grid and wavefunctions read in

   number of l-projection  operators is LMAX  =           4
   number of lm-projection operators is LMMAX =           8

 -----------------------------------------------------------------------------
|                                                                             |
|               ----> ADVICE to this user running VASP <----                  |
|                                                                             |
|     You have a (more or less) 'large supercell' and for larger cells it     |
|     might be more efficient to use real-space projection operators.         |
|     Therefore, try LREAL= Auto in the INCAR file.                           |
|     Mind: For very accurate calculation, you might also keep the            |
|     reciprocal projection scheme (i.e. LREAL=.FALSE.).                      |
|                                                                             |
 -----------------------------------------------------------------------------

  PAW_PBE B 06Sep2000                   :
 energy of atom  1       EATOM=  -71.1703
 kinetic energy error for atom=    0.0012 (will be added to EATOM!!)
  PAW_PBE N 08Apr2002                   :
 energy of atom  2       EATOM= -264.5486
 kinetic energy error for atom=    0.0138 (will be added to EATOM!!)
  PAW_PBE C 08Apr2002                   :
 energy of atom  3       EATOM= -147.1560
 kinetic energy error for atom=    0.0076 (will be added to EATOM!!)


 POSCAR: generated by phonopy
  positions in direct lattice
  velocities in cartesian coordinates


 exchange-correlation table for PE
   RHO(1)=    0.500       N(1)  =     2000
   RHO(2)=  100.500       N(2)  =     4000



--------------------------------------------------------------------------------------------------------


 ion  position               nearest neighbor table
   1  0.048  0.095  0.500-  57 1.45  56 1.45  49 1.45
   2  0.189  0.093  0.500-  58 1.44  50 1.45  57 1.45
   3  0.332  0.093  0.500-  58 1.44  51 1.45  59 1.45
   4  0.476  0.095  0.500-  59 1.45  60 1.45  52 1.45
   5  0.619  0.097  0.500-  53 1.45  60 1.45  61 1.46
   6  0.763  0.097  0.500-  54 1.45  62 1.46  61 1.46
   7  0.906  0.097  0.500-  55 1.45  56 1.45  62 1.46
   8  0.050  0.239  0.500-  63 1.45  56 1.45  64 1.46
   9  0.192  0.238  0.500-  65 1.45  64 1.45  57 1.46
  10  0.331  0.234  0.500-  58 1.44  65 1.44  66 1.44
  11  0.474  0.238  0.500-  66 1.45  67 1.45  59 1.46
  12  0.618  0.239  0.500-  68 1.45  60 1.45  67 1.46
  13  0.762  0.239  0.500-  61 1.45  69 1.46  68 1.46
  14  0.906  0.239  0.500-  62 1.45  69 1.46  63 1.46
  15  0.051  0.382  0.500-  63 1.45  70 1.47  71 1.47
  16  0.197  0.381  0.500-  64 1.45  71 1.48  72 1.50
  17  0.345  0.379  0.500-  65 1.46  72 1.51  18 2.07
  18  0.463  0.379  0.500-  66 1.46  73 1.51  17 2.07
  19  0.613  0.381  0.500-  67 1.45  74 1.48  73 1.50
  20  0.760  0.382  0.500-  68 1.45  75 1.47  74 1.47
  21  0.905  0.382  0.500-  69 1.45  75 1.47  70 1.47
  22  0.048  0.523  0.500-  70 1.45  77 1.46  76 1.46
  23  0.193  0.523  0.500-  71 1.45  78 1.46  77 1.46
  24  0.337  0.523  0.500-  72 1.45  79 1.46  78 1.47
  25  0.615  0.523  0.500-  73 1.45  80 1.46  81 1.47
  26  0.759  0.523  0.500-  74 1.45  81 1.46  82 1.46
  27  0.904  0.523  0.500-  75 1.45  82 1.46  76 1.46
  28  0.047  0.666  0.500-  76 1.45  83 1.46  84 1.46
  29  0.191  0.666  0.500-  77 1.45  85 1.45  84 1.46
  30  0.334  0.666  0.500-  86 1.45  85 1.45  78 1.45
  31  0.478  0.670  0.500-  87 1.44  86 1.44  79 1.46
  32  0.620  0.670  0.500-  87 1.44  88 1.44  80 1.46
  33  0.760  0.666  0.500-  88 1.45  89 1.45  81 1.45
  34  0.903  0.666  0.500-  82 1.45  89 1.45  83 1.46
  35  0.047  0.808  0.500-  83 1.45  91 1.45  90 1.45
  36  0.190  0.808  0.500-  84 1.45  91 1.45  92 1.45
  37  0.333  0.809  0.500-  92 1.45  85 1.45  93 1.45
  38  0.477  0.811  0.500-  93 1.45  94 1.45  86 1.46
  39  0.620  0.812  0.500-  94 1.45  95 1.45  87 1.45
  40  0.762  0.811  0.500-  96 1.45  95 1.45  88 1.46
  41  0.904  0.809  0.500-  90 1.45  89 1.45  96 1.45
  42  0.047  0.951  0.500-  50 1.45  90 1.45  49 1.45
  43  0.190  0.951  0.500-  91 1.45  51 1.45  50 1.45
  44  0.333  0.951  0.500-  51 1.45  92 1.45  52 1.45
  45  0.476  0.953  0.500-  52 1.45  53 1.45  93 1.45
  46  0.620  0.954  0.500-  53 1.45  94 1.45  54 1.45
  47  0.763  0.954  0.500-  55 1.45  95 1.45  54 1.45
  48  0.905  0.953  0.500-  49 1.45  55 1.45  96 1.45
  49  0.000  1.000  0.500-  48 1.45  42 1.45   1 1.45
  50  0.142  0.998  0.500-  42 1.45   2 1.45  43 1.45
  51  0.285  0.998  0.500-  44 1.45   3 1.45  43 1.45
  52  0.428  1.000  0.500-  45 1.45  44 1.45   4 1.45
  53  0.572  0.001  0.500-  46 1.45   5 1.45  45 1.45
  54  0.715  0.002  0.500-   6 1.45  47 1.45  46 1.45
  55  0.858  0.001  0.500-  47 1.45   7 1.45  48 1.45
  56  0.001  0.144  0.500-   7 1.45   1 1.45   8 1.45
  57  0.143  0.142  0.500-   1 1.45   2 1.45   9 1.46
  58  0.284  0.140  0.500-  10 1.44   2 1.44   3 1.44
  59  0.427  0.142  0.500-   4 1.45   3 1.45  11 1.46
  60  0.571  0.144  0.500-   5 1.45   4 1.45  12 1.45
  61  0.715  0.144  0.500-  13 1.45   5 1.46   6 1.46
  62  0.858  0.144  0.500-  14 1.45   7 1.46   6 1.46
  63  0.002  0.286  0.500-  15 1.45   8 1.45  14 1.46
  64  0.146  0.286  0.500-   9 1.45  16 1.45   8 1.46
  65  0.287  0.284  0.500-  10 1.44   9 1.45  17 1.46
  66  0.426  0.284  0.500-  10 1.44  11 1.45  18 1.46
  67  0.569  0.286  0.500-  11 1.45  19 1.45  12 1.46
  68  0.713  0.286  0.500-  20 1.45  12 1.45  13 1.46
  69  0.858  0.286  0.500-  21 1.45  13 1.46  14 1.46
  70  0.001  0.428  0.500-  22 1.45  21 1.47  15 1.47
  71  0.147  0.428  0.500-  23 1.45  15 1.47  16 1.48
  72  0.295  0.428  0.500-  24 1.45  16 1.50  17 1.51
  73  0.561  0.428  0.500-  25 1.45  19 1.50  18 1.51
  74  0.710  0.428  0.500-  26 1.45  20 1.47  19 1.48
  75  0.856  0.428  0.500-  27 1.45  21 1.47  20 1.47
  76  0.999  0.570  0.500-  28 1.45  27 1.46  22 1.46
  77  0.144  0.570  0.500-  29 1.45  22 1.46  23 1.46
  78  0.289  0.571  0.500-  30 1.45  23 1.46  24 1.47
  79  0.433  0.574  0.500-  97 1.37  31 1.46  24 1.46
  80  0.569  0.574  0.500-  97 1.37  32 1.46  25 1.46
  81  0.711  0.571  0.500-  33 1.45  26 1.46  25 1.47
  82  0.855  0.570  0.500-  34 1.45  27 1.46  26 1.46
  83  0.999  0.713  0.500-  35 1.45  28 1.46  34 1.46
  84  0.143  0.713  0.500-  36 1.45  28 1.46  29 1.46
  85  0.286  0.713  0.500-  37 1.45  30 1.45  29 1.45
  86  0.430  0.715  0.500-  31 1.44  30 1.45  38 1.46
  87  0.573  0.717  0.500-  31 1.44  32 1.44  39 1.45
  88  0.714  0.715  0.500-  32 1.44  33 1.45  40 1.46
  89  0.856  0.713  0.500-  41 1.45  33 1.45  34 1.45
  90  0.999  0.856  0.500-  41 1.45  42 1.45  35 1.45
  91  0.142  0.855  0.500-  43 1.45  36 1.45  35 1.45
  92  0.285  0.856  0.500-  37 1.45  44 1.45  36 1.45
  93  0.429  0.857  0.500-  38 1.45  45 1.45  37 1.45
  94  0.572  0.859  0.500-  39 1.45  46 1.45  38 1.45
  95  0.715  0.859  0.500-  39 1.45  47 1.45  40 1.45
  96  0.857  0.857  0.500-  40 1.45  48 1.45  41 1.45
  97  0.479  0.530  0.500-  79 1.37  80 1.37


IMPORTANT INFORMATION: All symmetrisations will be switched off!
NOSYMM: (Re-)initialisation of all symmetry stuff for point group C_1.


----------------------------------------------------------------------------------------

                                     Primitive cell                                     

  volume of cell :    4026.1871

  direct lattice vectors                    reciprocal lattice vectors
    17.605000000  0.000000000  0.000000000     0.056802045  0.032794676 -0.000000000
    -8.802500000 15.246377237  0.000000000     0.000000000  0.065589352  0.000000000
     0.000000000  0.000000000 15.000000000     0.000000000 -0.000000000  0.066666667

  length of vectors
    17.605000000 17.605000003 15.000000000     0.065589352  0.065589352  0.066666667

  position of ions in fractional coordinates (direct lattice)
     0.048147836  0.095172013  0.499999997
     0.189321056  0.093077029  0.500000011
     0.332325753  0.093077770  0.500000020
     0.475594522  0.095173576  0.500000016
     0.619110321  0.096503587  0.500000013
     0.762699239  0.096827036  0.500000008
     0.905964040  0.096504088  0.499999994
     0.049830187  0.239090511  0.499999993
     0.191994055  0.237631794  0.499999971
     0.331192912  0.233817431  0.499999984
     0.474207972  0.237633883  0.500000002
     0.617830273  0.239091515  0.499999996
     0.761891275  0.239330981  0.500000001
     0.906009807  0.239330864  0.500000006
     0.050543654  0.381530718  0.499999997
     0.196992596  0.381413405  0.500000023
     0.344961329  0.378914484  0.500000009
     0.462521954  0.378914432  0.499999978
     0.612993491  0.381415460  0.499999970
     0.759560674  0.381530888  0.500000002
     0.905056742  0.381539894  0.500000000
     0.048335734  0.523425601  0.499999999
     0.193021090  0.523440195  0.500000026
     0.337162547  0.523088944  0.500000055
     0.614500196  0.523088639  0.499999978
     0.758993830  0.523441401  0.499999996
     0.903663045  0.523425984  0.499999996
     0.047055740  0.665540347  0.499999986
     0.190842519  0.665653984  0.499999997
     0.334338225  0.666088540  0.500000012
     0.478495607  0.669597901  0.500000005
     0.619678012  0.669599927  0.500000005
     0.760324283  0.666089521  0.500000005
     0.903384333  0.665655325  0.499999995
     0.046669406  0.808088623  0.500000002
     0.189989625  0.808088476  0.499999974
     0.333441330  0.808755424  0.499999974
     0.476927699  0.810577556  0.499999988
     0.620392566  0.812214330  0.499999990
     0.762222112  0.810580019  0.499999992
     0.903883890  0.808755201  0.500000010
     0.046793576  0.951119858  0.500000020
     0.189575902  0.950580260  0.500000013
     0.332897536  0.951121063  0.499999992
     0.476318355  0.952794074  0.500000001
     0.619762245  0.954132324  0.500000002
     0.762940637  0.954133342  0.499999987
     0.905045648  0.952794583  0.499999995
     0.000070885  0.999759468  0.500000008
     0.141776282  0.998040423  0.500000032
     0.284835252  0.998040711  0.500000015
     0.428260350  0.999760974  0.500000013
     0.571692137  0.001175635  0.500000016
     0.715078091  0.001585311  0.499999999
     0.858052847  0.001176721  0.499999983
     0.001308077  0.143682916  0.499999991
     0.143177693  0.142079564  0.499999990
     0.284048346  0.139528485  0.500000013
     0.427472935  0.142081948  0.500000021
     0.570945163  0.143682689  0.500000009
     0.714544878  0.144120897  0.500000015
     0.858147061  0.144120483  0.500000006
     0.001777688  0.286438579  0.500000005
     0.145647696  0.286259654  0.499999981
     0.286950731  0.283888183  0.499999951
     0.425505878  0.283887543  0.499999991
     0.569183630  0.286262532  0.499999988
     0.713231419  0.286438485  0.499999991
     0.857519551  0.286469395  0.500000004
     0.001192661  0.428394293  0.499999992
     0.147075928  0.428353097  0.500000014
     0.295227010  0.428128448  0.500000081
     0.561469983  0.428126968  0.499999932
     0.709851867  0.428353655  0.499999997
     0.855776457  0.428394382  0.500000012
     0.999493515  0.570414868  0.499999989
     0.144059280  0.570483265  0.500000013
     0.288622925  0.570703533  0.500000044
     0.433082386  0.573823577  0.500000028
     0.569318505  0.573825701  0.500000005
     0.710654427  0.570704124  0.500000002
     0.854999257  0.570485981  0.499999990
     0.998901348  0.712884882  0.499999990
     0.142555077  0.712884234  0.499999975
     0.286239789  0.713379215  0.499999995
     0.429599149  0.715138137  0.499999996
     0.572920066  0.717266483  0.499999999
     0.714115102  0.715140930  0.500000005
     0.855713080  0.713380427  0.500000008
     0.999049428  0.855867683  0.500000020
     0.141991917  0.855412215  0.499999994
     0.285387388  0.855868450  0.499999954
     0.428830883  0.857406185  0.499999978
     0.572194335  0.858913022  0.499999992
     0.715290011  0.858914380  0.499999978
     0.857146350  0.857406813  0.499999998
     0.479371813  0.530166888  0.500000016

  ion indices of the primitive-cell ions
   primitive index   ion index
                 1           1
                 2           2
                 3           3
                 4           4
                 5           5
                 6           6
                 7           7
                 8           8
                 9           9
                10          10
                11          11
                12          12
                13          13
                14          14
                15          15
                16          16
                17          17
                18          18
                19          19
                20          20
                21          21
                22          22
                23          23
                24          24
                25          25
                26          26
                27          27
                28          28
                29          29
                30          30
                31          31
                32          32
                33          33
                34          34
                35          35
                36          36
                37          37
                38          38
                39          39
                40          40
                41          41
                42          42
                43          43
                44          44
                45          45
                46          46
                47          47
                48          48
                49          49
                50          50
                51          51
                52          52
                53          53
                54          54
                55          55
                56          56
                57          57
                58          58
                59          59
                60          60
                61          61
                62          62
                63          63
                64          64
                65          65
                66          66
                67          67
                68          68
                69          69
                70          70
                71          71
                72          72
                73          73
                74          74
                75          75
                76          76
                77          77
                78          78
                79          79
                80          80
                81          81
                82          82
                83          83
                84          84
                85          85
                86          86
                87          87
                88          88
                89          89
                90          90
                91          91
                92          92
                93          93
                94          94
                95          95
                96          96
                97          97

----------------------------------------------------------------------------------------



 KPOINTS: scf                                     

Automatic generation of k-mesh.
 Grid dimensions read from file:
 generate k-points for:    3    3    1

 Generating k-lattice:

  Cartesian coordinates                     Fractional coordinates (reciprocal lattice)
     0.018934015  0.010931559 -0.000000000     0.333333333 -0.000000000  0.000000000
     0.000000000  0.021863117  0.000000000     0.000000000  0.333333333  0.000000000
     0.000000000 -0.000000000  0.066666667     0.000000000  0.000000000  1.000000000

  Length of vectors
     0.021863117  0.021863117  0.066666667

  Shift w.r.t. Gamma in fractional coordinates (k-lattice)
     0.000000000  0.000000000  0.000000000

 
 Subroutine IBZKPT returns following result:
 ===========================================
 
 Found      5 irreducible k-points:
 
 Following reciprocal coordinates:
            Coordinates               Weight
  0.000000  0.000000  0.000000      1.000000
  0.333333  0.000000  0.000000      2.000000
  0.000000  0.333333  0.000000      2.000000
 -0.333333  0.333333  0.000000      2.000000
  0.333333  0.333333  0.000000      2.000000
 
 Following cartesian coordinates:
            Coordinates               Weight
  0.000000  0.000000  0.000000      1.000000
  0.018934  0.010932  0.000000      2.000000
  0.000000  0.021863  0.000000      2.000000
 -0.018934  0.010932  0.000000      2.000000
  0.018934  0.032795  0.000000      2.000000
 


--------------------------------------------------------------------------------------------------------




 Dimension of arrays:
   k-points           NKPTS =      5   k-points in BZ     NKDIM =      5   number of bands    NBANDS=    256
   number of dos      NEDOS =    301   number of ions     NIONS =     97
   non local maximal  LDIM  =      4   non local SUM 2l+1 LMDIM =      8
   total plane-waves  NPLWV = 774144
   max r-space proj   IRMAX =      1   max aug-charges    IRDMAX=   3198
   dimension x,y,z NGX =    96 NGY =   96 NGZ =   84
   dimension x,y,z NGXF=   192 NGYF=  192 NGZF=  168
   support grid    NGXF=   192 NGYF=  192 NGZF=  168
   ions per type =              48  48   1
   NGX,Y,Z   is equivalent  to a cutoff of   9.07,  9.07,  9.31 a.u.
   NGXF,Y,Z  is equivalent  to a cutoff of  18.13, 18.13, 18.62 a.u.

 SYSTEM =  unknown system                          
 POSCAR =  generated by phonopy                    

 Startparameter for this run:
   NWRITE =      2    write-flag & timer
   PREC   = normal    normal or accurate (medium, high low for compatibility)
   ISTART =      0    job   : 0-new  1-cont  2-samecut
   ICHARG =      2    charge: 1-file 2-atom 10-const
   ISPIN  =      2    spin polarized calculation?
   LNONCOLLINEAR =      F non collinear calculations
   LSORBIT =      F    spin-orbit coupling
   INIWAV =      1    electr: 0-lowe 1-rand  2-diag
   LASPH  =      F    aspherical Exc in radial PAW
 Electronic Relaxation 1
   ENCUT  =  500.0 eV  36.75 Ry    6.06 a.u.  32.10 32.10 27.35*2*pi/ulx,y,z
   ENINI  =  500.0     initial cutoff
   ENAUG  =  644.9 eV  augmentation charge cutoff
   NELM   =     60;   NELMIN=  2; NELMDL= -5     # of ELM steps 
   EDIFF  = 0.1E-05   stopping-criterion for ELM
   LREAL  =      F    real-space projection
   NLSPLINE    = F    spline interpolate recip. space projectors
   LCOMPAT=      F    compatible to vasp.4.4
   GGA_COMPAT  = T    GGA compatible to vasp.4.4-vasp.4.6
   LMAXPAW     = -100 max onsite density
   LMAXMIX     =    2 max onsite mixed and CHGCAR
   VOSKOWN=      0    Vosko Wilk Nusair interpolation
   ROPT   =    0.00000   0.00000   0.00000
 Ionic relaxation
   EDIFFG = 0.1E-04   stopping-criterion for IOM
   NSW    =      0    number of steps for IOM
   NBLOCK =      1;   KBLOCK =      1    inner block; outer block 
   IBRION =     -1    ionic relax: 0-MD 1-quasi-New 2-CG
   NFREE  =      0    steps in history (QN), initial steepest desc. (CG)
   ISIF   =      2    stress and relaxation
   IWAVPR =     10    prediction:  0-non 1-charg 2-wave 3-comb
   ISYM   =      0    0-nonsym 1-usesym 2-fastsym
   LCORR  =      T    Harris-Foulkes like correction to forces

   POTIM  = 0.5000    time-step for ionic-motion
   TEIN   =    0.0    initial temperature
   TEBEG  =    0.0;   TEEND  =   0.0 temperature during run
   SMASS  =  -3.00    Nose mass-parameter (am)
   estimated Nose-frequenzy (Omega)   =  0.10E-29 period in steps = 0.13E+47 mass=  -0.708E-26a.u.
   SCALEE = 1.0000    scale energy and forces
   NPACO  =    256;   APACO  = 10.0  distance and # of slots for P.C.
   PSTRESS=    0.0 pullay stress

  Mass of Ions in am
   POMASS =  10.81 14.00 12.01
  Ionic Valenz
   ZVAL   =   3.00  5.00  4.00
  Atomic Wigner-Seitz radii
   RWIGS  =  -1.00 -1.00 -1.00
  virtual crystal weights 
   VCA    =   1.00  1.00  1.00
   NELECT =     388.0000    total number of electrons
   NUPDOWN=       2.0000    fix difference up-down

 DOS related values:
   EMIN   =  10.00;   EMAX   =-10.00  energy-range for DOS
   EFERMI =   0.00;   METHOD = LEGACY      
   ISMEAR =     0;   SIGMA  =   0.05  broadening in eV -4-tet -1-fermi 0-gaus

 Electronic relaxation 2 (details)
   IALGO  =     38    algorithm
   LDIAG  =      T    sub-space diagonalisation (order eigenvalues)
   LSUBROT=      F    optimize rotation matrix (better conditioning)
   TURBO    =      0    0=normal 1=particle mesh
   IRESTART =      0    0=no restart 2=restart with 2 vectors
   NREBOOT  =      0    no. of reboots
   NMIN     =      0    reboot dimension
   EREF     =   0.00    reference energy to select bands
   IMIX   =      4    mixing-type and parameters
     AMIX     =   0.40;   BMIX     =  1.00
     AMIX_MAG =   1.60;   BMIX_MAG =  1.00
     AMIN     =   0.10
     WC   =   100.;   INIMIX=   1;  MIXPRE=   1;  MAXMIX= -45

 Intra band minimization:
   WEIMIN = 0.0000     energy-eigenvalue tresh-hold
   EBREAK =  0.98E-09  absolut break condition
   DEPER  =   0.30     relativ break condition  

   TIME   =   0.40     timestep for ELM

  volume/ion in A,a.u.               =      41.51       280.10
  Fermi-wavevector in a.u.,A,eV,Ry     =   0.750563  1.418359  7.664781  0.563346
  Thomas-Fermi vector in A             =   1.847343

 Write flags
   LWAVE        =      T    write WAVECAR
   LDOWNSAMPLE  =      F    k-point downsampling of WAVECAR
   LCHARG       =      T    write CHGCAR
   LVTOT        =      F    write LOCPOT, total local potential
   LVHAR        =      F    write LOCPOT, Hartree potential only
   WRT_POTENTIAL= false  ! write potential to hdf5 file
   LELF         =      F    write electronic localiz. function (ELF)
   LORBIT       =      0    0 simple, 1 ext, 2 COOP (PROOUT), +10 PAW based schemes


 Dipole corrections
   LMONO      =      F    monopole corrections only (constant potential shift)
   LDIPOL     =      F    correct potential (dipole corrections)
   IDIPOL     =      0    1-x, 2-y, 3-z, 4-all directions 
   EPSILON    =  1.0000000 bulk dielectric constant
   LVACPOTAV  =      F  vacuum potentials using an averaging scheme for the charge density
   VACPOTFLAT =  0.1000000 required flatness to determine vacuum potential
 Exchange correlation treatment:
   GGA     = PE    functional components
   XC_C    = 1    coefficients multiplying the functional components
   LIBXC   =     F    Libxc                    
   VOSKOWN =     0    Vosko Wilk Nusair interpolation
   LHFCALC =     F    Hartree Fock is set to
   LHFONE  =     F    Hartree Fock one center treatment
   AEXX    =    0.0000 exact exchange contribution

 Parameters of functionals:
   PE:
     No parameter

 Van der Waals corrections
   IVDW    =     0    specifies the selected vdW correction

 Linear response parameters
   LEPSILON=     F    determine dielectric tensor
   LRPA    =     F    only Hartree local field effects (RPA)
   LNABLA  =     F    use nabla operator in PAW spheres
   LVEL    =     F    velocity operator in full k-point grid
   CSHIFT  =0.1000    complex shift for real part using Kramers Kronig
   OMEGAMAX=  -1.0    maximum frequency
   DEG_THRESHOLD= 0.2000000E-02 threshold for treating states as degnerate
   RTIME   =   -0.100 relaxation time in fs
  (WPLASMAI=    0.000 imaginary part of plasma frequency in eV, 0.658/RTIME)
   DFIELD  = 0.0000000 0.0000000 0.0000000 field for delta impulse in time

  Optional k-point grid parameters
   LKPOINTS_OPT  =     F    use optional k-point grid
   KPOINTS_OPT_MODE=     1    mode for optional k-point grid

 Orbital magnetization related:
   ORBITALMAG=     F  switch on orbital magnetization
   LCHIMAG   =     F  perturbation theory with respect to B field
   DQ        =  0.001000  dq finite difference perturbation B field
   LLRAUG    =     F  two centre corrections for induced B field
   LBONE     =     F  B-component reconstruction in AE one-centre
   LVGVCALC  =     T  calculate vGv susceptibility
   LVGVAPPL  =     F  apply vGv susceptibility instead of pGv for G=0

 Random number generation:
   RANDOM_GENERATOR = DEFAULT
   PCG_SEED         = not used


--------------------------------------------------------------------------------------------------------


 Static calculation
 charge density and potential will be updated during run
 spin polarized calculation
 Variant of blocked Davidson
 Davidson routine will perform the subspace rotation
 perform sub-space diagonalisation
    after iterative eigenvector-optimisation
 modified Broyden-mixing scheme, WC =      100.0
 initial mixing is a Kerker type mixing with AMIX =  0.4000 and BMIX =      1.0000
 Hartree-type preconditioning will be used
 using additional bands           62
 reciprocal scheme for non local part
 use partial core corrections
 calculate Harris-corrections to forces   (improved forces if not selfconsistent)
 use gradient corrections 
 use of overlap-Matrix (Vanderbilt PP)
 Gauss-broadening in eV      SIGMA  =   0.05


--------------------------------------------------------------------------------------------------------


  energy-cutoff  :      500.00
  volume of cell :     4026.19
      direct lattice vectors                 reciprocal lattice vectors
    17.605000000  0.000000000  0.000000000     0.056802045  0.032794676 -0.000000000
    -8.802500000 15.246377237  0.000000000     0.000000000  0.065589352  0.000000000
     0.000000000  0.000000000 15.000000000     0.000000000 -0.000000000  0.066666667

  length of vectors
    17.605000000 17.605000003 15.000000000     0.065589352  0.065589352  0.066666667



 k-points in units of 2pi/SCALE and weight: scf                                     
   0.00000000  0.00000000  0.00000000       0.111
   0.01893401  0.01093156  0.00000000       0.222
   0.00000000  0.02186312  0.00000000       0.222
  -0.01893401  0.01093156  0.00000000       0.222
   0.01893401  0.03279468  0.00000000       0.222

 k-points in reciprocal lattice and weights: scf                                     
   0.00000000  0.00000000  0.00000000       0.111
   0.33333333  0.00000000  0.00000000       0.222
   0.00000000  0.33333333  0.00000000       0.222
  -0.33333333  0.33333333  0.00000000       0.222
   0.33333333  0.33333333  0.00000000       0.222

 position of ions in fractional coordinates (direct lattice) 
   0.04814784  0.09517201  0.50000000
   0.18932106  0.09307703  0.50000001
   0.33232575  0.09307777  0.50000002
   0.47559452  0.09517358  0.50000002
   0.61911032  0.09650359  0.50000001
   0.76269924  0.09682704  0.50000001
   0.90596404  0.09650409  0.49999999
   0.04983019  0.23909051  0.49999999
   0.19199405  0.23763179  0.49999997
   0.33119291  0.23381743  0.49999998
   0.47420797  0.23763388  0.50000000
   0.61783027  0.23909152  0.50000000
   0.76189128  0.23933098  0.50000000
   0.90600981  0.23933086  0.50000001
   0.05054365  0.38153072  0.50000000
   0.19699260  0.38141341  0.50000002
   0.34496133  0.37891448  0.50000001
   0.46252195  0.37891443  0.49999998
   0.61299349  0.38141546  0.49999997
   0.75956067  0.38153089  0.50000000
   0.90505674  0.38153989  0.50000000
   0.04833573  0.52342560  0.50000000
   0.19302109  0.52344019  0.50000003
   0.33716255  0.52308894  0.50000006
   0.61450020  0.52308864  0.49999998
   0.75899383  0.52344140  0.50000000
   0.90366305  0.52342598  0.50000000
   0.04705574  0.66554035  0.49999999
   0.19084252  0.66565398  0.50000000
   0.33433823  0.66608854  0.50000001
   0.47849561  0.66959790  0.50000000
   0.61967801  0.66959993  0.50000001
   0.76032428  0.66608952  0.50000000
   0.90338433  0.66565533  0.49999999
   0.04666941  0.80808862  0.50000000
   0.18998962  0.80808848  0.49999997
   0.33344133  0.80875542  0.49999997
   0.47692770  0.81057756  0.49999999
   0.62039257  0.81221433  0.49999999
   0.76222211  0.81058002  0.49999999
   0.90388389  0.80875520  0.50000001
   0.04679358  0.95111986  0.50000002
   0.18957590  0.95058026  0.50000001
   0.33289754  0.95112106  0.49999999
   0.47631835  0.95279407  0.50000000
   0.61976225  0.95413232  0.50000000
   0.76294064  0.95413334  0.49999999
   0.90504565  0.95279458  0.50000000
   0.00007088  0.99975947  0.50000001
   0.14177628  0.99804042  0.50000003
   0.28483525  0.99804071  0.50000001
   0.42826035  0.99976097  0.50000001
   0.57169214  0.00117564  0.50000002
   0.71507809  0.00158531  0.50000000
   0.85805285  0.00117672  0.49999998
   0.00130808  0.14368292  0.49999999
   0.14317769  0.14207956  0.49999999
   0.28404835  0.13952848  0.50000001
   0.42747293  0.14208195  0.50000002
   0.57094516  0.14368269  0.50000001
   0.71454488  0.14412090  0.50000001
   0.85814706  0.14412048  0.50000001
   0.00177769  0.28643858  0.50000000
   0.14564770  0.28625965  0.49999998
   0.28695073  0.28388818  0.49999995
   0.42550588  0.28388754  0.49999999
   0.56918363  0.28626253  0.49999999
   0.71323142  0.28643848  0.49999999
   0.85751955  0.28646940  0.50000000
   0.00119266  0.42839429  0.49999999
   0.14707593  0.42835310  0.50000001
   0.29522701  0.42812845  0.50000008
   0.56146998  0.42812697  0.49999993
   0.70985187  0.42835365  0.50000000
   0.85577646  0.42839438  0.50000001
   0.99949351  0.57041487  0.49999999
   0.14405928  0.57048326  0.50000001
   0.28862292  0.57070353  0.50000004
   0.43308239  0.57382358  0.50000003
   0.56931850  0.57382570  0.50000000
   0.71065443  0.57070412  0.50000000
   0.85499926  0.57048598  0.49999999
   0.99890135  0.71288488  0.49999999
   0.14255508  0.71288423  0.49999997
   0.28623979  0.71337921  0.50000000
   0.42959915  0.71513814  0.50000000
   0.57292007  0.71726648  0.50000000
   0.71411510  0.71514093  0.50000000
   0.85571308  0.71338043  0.50000001
   0.99904943  0.85586768  0.50000002
   0.14199192  0.85541222  0.49999999
   0.28538739  0.85586845  0.49999995
   0.42883088  0.85740618  0.49999998
   0.57219433  0.85891302  0.49999999
   0.71529001  0.85891438  0.49999998
   0.85714635  0.85740681  0.50000000
   0.47937181  0.53016689  0.50000002

 position of ions in cartesian coordinates  (Angst):
   0.00989100  1.45102842  7.49999995
   2.51368665  1.41908750  7.50000016
   5.03127781  1.41909880  7.50000030
   7.53507616  1.45105224  7.50000024
  10.04996438  1.47133009  7.50000020
  12.57500012  1.47626152  7.50000012
  15.10001969  1.47133773  7.49999992
  -1.22733378  3.64526412  7.49999990
   1.28830146  3.62302398  7.49999957
   3.77247327  3.56486875  7.49999977
   6.25665909  3.62305582  7.50000002
   8.77229889  3.64527944  7.49999994
  11.30638494  3.64893042  7.50000001
  13.84359273  3.64892863  7.50000010
  -2.46860312  5.81696125  7.49999996
   0.11066316  5.81517266  7.50000034
   2.73764946  5.77707316  7.50000013
   4.80730471  5.77707237  7.49999967
   7.43434082  5.81520399  7.49999955
  10.01364003  5.81696384  7.50000003
  12.57501903  5.81710116  7.50000001
  -3.75650326  7.98034417  7.49999999
  -1.20944603  7.98056667  7.50000039
   1.33125622  7.97521137  7.50000083
   6.21378821  7.97520672  7.49999967
   8.75449344  7.98058507  7.49999994
  11.30153069  7.98035001  7.49999994
  -5.03000261 10.14707920  7.49999978
  -2.49963665 10.14881176  7.49999995
   0.02278009 10.15543715  7.50000018
   2.52977963 10.20894220  7.50000007
   5.01527805 10.20897309  7.50000008
   7.52225600 10.15545211  7.50000007
  10.04465018 10.14883220  7.49999992
  -6.29158520 12.32042398  7.50000002
  -3.76843147 12.32042175  7.49999960
  -1.24883500 12.33059028  7.49999961
   1.26120321 12.35837120  7.49999982
   3.77249449 12.38332607  7.49999985
   6.28378967 12.35840875  7.49999988
   8.79380822 12.33058689  7.50000014
  -7.54843165 14.50113215  7.50000030
  -5.02999898 14.49290524  7.50000020
  -2.51158204 14.50115052  7.49999988
  -0.00138520 14.52665789  7.50000001
   2.51216455 14.54706134  7.50000002
   5.03281118 14.54707687  7.49999980
   7.54635431 14.52666564  7.49999993
  -8.79913479 15.24270999  7.50000011
  -6.28927939 15.21650079  7.50000048
  -3.77072875 15.21650519  7.50000022
  -1.26087250 15.24273295  7.50000019
  10.05429155  0.01792418  7.50000024
  12.57499510  0.02417025  7.49999998
  15.09566228  0.01794073  7.49999974
  -1.24174016  2.19064393  7.49999987
   1.26998792  2.16619863  7.49999984
   3.77247165  2.12730391  7.50000020
   6.27498467  2.16623497  7.50000032
   8.78672272  2.19064048  7.50000014
  11.31093838  2.19732156  7.50000022
  13.83905846  2.19731525  7.50000009
  -2.49007940  4.36715063  7.50000007
   0.04432709  4.36442267  7.49999971
   2.55284188  4.32826633  7.49999926
   4.99211088  4.32825658  7.49999986
   7.50065188  4.36446654  7.49999982
  10.03506436  4.36714920  7.49999986
  12.57498485  4.36762047  7.50000006
  -3.74994397  6.53146100  7.49999988
  -1.18130643  6.53083291  7.50000021
   1.42887085  6.52740782  7.50000122
   6.11609142  6.52738526  7.49999898
   8.72635908  6.53084141  7.49999995
  11.29500299  6.53146235  7.50000018
  12.57500645  8.69676026  7.49999984
  -2.48551531  8.69780306  7.50000019
   0.05758874  8.70116135  7.50000065
   2.57333336  8.74873072  7.50000041
   4.97175155  8.74876310  7.50000007
   7.48744813  8.70117037  7.50000003
  10.03055907  8.69784448  7.49999985
  11.31048906 10.86891183  7.49999986
  -3.76548134 10.86890196  7.49999962
  -1.24026905 10.87644862  7.49999993
   1.26808956 10.90326581  7.49999993
   3.77251955 10.93571538  7.49999998
   6.27696833 10.90330840  7.50000007
   8.78529757 10.87646710  7.50000012
  10.05448990 13.04888157  7.50000031
  -5.02999833 13.04193733  7.49999990
  -2.50953706 13.04889326  7.49999931
   0.00224976 13.07233814  7.49999967
   2.51289938 13.09531195  7.49999988
   5.03208680 13.09533266  7.49999967
   7.54273802 13.07234771  7.49999997
   3.77254673  8.08312438  7.50000024



--------------------------------------------------------------------------------------------------------


 k-point     1 :   0.0000 0.0000 0.0000  plane waves:  102109
 k-point     2 :   0.3333 0.0000 0.0000  plane waves:  102240
 k-point     3 :   0.0000 0.3333 0.0000  plane waves:  102240
 k-point     4 :  -0.3333 0.3333 0.0000  plane waves:  102240
 k-point     5 :   0.3333 0.3333 0.0000  plane waves:  102270

 maximum and minimum number of plane-waves per node :     25593    25490

 maximum number of plane-waves:    102270
 maximum index in each direction: 
   IXMAX=   32   IYMAX=   32   IZMAX=   27
   IXMIN=  -32   IYMIN=  -32   IZMIN=  -27


 parallel 3D FFT for wavefunctions:
    minimum data exchange during FFTs selected (reduces bandwidth)
 parallel 3D FFT for charge:
    minimum data exchange during FFTs selected (reduces bandwidth)


 total amount of memory used by VASP MPI-rank0   193968. kBytes
=======================================================================

   base      :      30000. kBytes
   nonl-proj :      64307. kBytes
   fftplans  :       9285. kBytes
   grid      :      24155. kBytes
   one-center:        153. kBytes
   wavefun   :      66068. kBytes

     INWAV:  cpu time      0.0000: real time      0.0000
 Broyden mixing: mesh for mixing (old mesh)
   NGX = 65   NGY = 65   NGZ = 55
  (NGX  =192   NGY  =192   NGZ  =168)
  gives a total of 232375 points

 initial charge density was supplied:
 charge density of overlapping atoms calculated
 number of electron     388.0000000 magnetization       2.0000000
 keeping initial charge density in first step


--------------------------------------------------------------------------------------------------------


 Maximum index for augmentation-charges          229 (set IRDMAX)


--------------------------------------------------------------------------------------------------------


 First call to EWALD:  gamma=   0.111
 Maximum number of real-space cells 3x 3x 3
 Maximum number of reciprocal cells 3x 3x 3

    FEWALD:  cpu time      0.0054: real time      0.0054


--------------------------------------- Ionic step        1  -------------------------------------------




--------------------------------------- Iteration      1(   1)  ---------------------------------------


    POTLOK:  cpu time      0.1716: real time      0.1719
    SETDIJ:  cpu time      0.0098: real time      0.0099
     EDDAV:  cpu time     39.6933: real time     39.7331
       DOS:  cpu time      0.0015: real time      0.0016
    --------------------------------------------
      LOOP:  cpu time     39.8763: real time     39.9165

 eigenvalue-minimisations  :  5552
 total energy-change (2. order) : 0.3698462E+04  (-0.1441932E+05)
 number of electron     388.0000000 magnetization       2.0000000
 augmentation part      388.0000000 magnetization       2.0000000

 Free energy of the ion-electron system (eV)
  ---------------------------------------------------
  alpha Z        PSCENC =       207.73511157
  Ewald energy   TEWEN  =     37352.32367648
  -Hartree energ DENC   =    -49805.55147993
  -exchange      EXHF   =         0.00000000
  -V(xc)+E(xc)   XCENC  =      1301.95220673
  PAW double counting   =     12033.28159698   -12049.96224526
  entropy T*S    EENTRO =        -0.04408798
  eigenvalues    EBANDS =     -1602.21199706
  atomic energy  EATOM  =     16260.93880140
  Solvation  Ediel_sol  =         0.00000000
  ---------------------------------------------------
  free energy    TOTEN  =      3698.46158292 eV

  energy without entropy =     3698.50567090  energy(sigma->0) =     3698.48362691


--------------------------------------------------------------------------------------------------------




--------------------------------------- Iteration      1(   2)  ---------------------------------------


     EDDAV:  cpu time     50.6461: real time     50.6490
       DOS:  cpu time      0.0008: real time      0.0008
    --------------------------------------------
      LOOP:  cpu time     50.6468: real time     50.6498

 eigenvalue-minimisations  :  7584
 total energy-change (2. order) :-0.3850246E+04  (-0.3660042E+04)
 number of electron     388.0000000 magnetization       2.0000000
 augmentation part      388.0000000 magnetization       2.0000000

 Free energy of the ion-electron system (eV)
  ---------------------------------------------------
  alpha Z        PSCENC =       207.73511157
  Ewald energy   TEWEN  =     37352.32367648
  -Hartree energ DENC   =    -49805.55147993
  -exchange      EXHF   =         0.00000000
  -V(xc)+E(xc)   XCENC  =      1301.95220673
  PAW double counting   =     12033.28159698   -12049.96224526
  entropy T*S    EENTRO =        -0.00000000
  eigenvalues    EBANDS =     -5452.50217827
  atomic energy  EATOM  =     16260.93880140
  Solvation  Ediel_sol  =         0.00000000
  ---------------------------------------------------
  free energy    TOTEN  =      -151.78451031 eV

  energy without entropy =     -151.78451031  energy(sigma->0) =     -151.78451031


--------------------------------------------------------------------------------------------------------




--------------------------------------- Iteration      1(   3)  ---------------------------------------


     EDDAV:  cpu time     41.3497: real time     41.3556
       DOS:  cpu time      0.0006: real time      0.0006
    --------------------------------------------
      LOOP:  cpu time     41.3502: real time     41.3562

 eigenvalue-minimisations  :  6080
 total energy-change (2. order) :-0.7480419E+03  (-0.7419309E+03)
 number of electron     388.0000000 magnetization       2.0000000
 augmentation part      388.0000000 magnetization       2.0000000

 Free energy of the ion-electron system (eV)
  ---------------------------------------------------
  alpha Z        PSCENC =       207.73511157
  Ewald energy   TEWEN  =     37352.32367648
  -Hartree energ DENC   =    -49805.55147993
  -exchange      EXHF   =         0.00000000
  -V(xc)+E(xc)   XCENC  =      1301.95220673
  PAW double counting   =     12033.28159698   -12049.96224526
  entropy T*S    EENTRO =        -0.00000000
  eigenvalues    EBANDS =     -6200.54409839
  atomic energy  EATOM  =     16260.93880140
  Solvation  Ediel_sol  =         0.00000000
  ---------------------------------------------------
  free energy    TOTEN  =      -899.82643044 eV

  energy without entropy =     -899.82643044  energy(sigma->0) =     -899.82643044


--------------------------------------------------------------------------------------------------------




--------------------------------------- Iteration      1(   4)  ---------------------------------------


     EDDAV:  cpu time     43.0227: real time     43.0313
       DOS:  cpu time      0.0006: real time      0.0006
    --------------------------------------------
      LOOP:  cpu time     43.0232: real time     43.0319

 eigenvalue-minimisations  :  6320
 total energy-change (2. order) :-0.3362226E+02  (-0.3345049E+02)
 number of electron     388.0000000 magnetization       2.0000000
 augmentation part      388.0000000 magnetization       2.0000000

 Free energy of the ion-electron system (eV)
  ---------------------------------------------------
  alpha Z        PSCENC =       207.73511157
  Ewald energy   TEWEN  =     37352.32367648
  -Hartree energ DENC   =    -49805.55147993
  -exchange      EXHF   =         0.00000000
  -V(xc)+E(xc)   XCENC  =      1301.95220673
  PAW double counting   =     12033.28159698   -12049.96224526
  entropy T*S    EENTRO =        -0.00000000
  eigenvalues    EBANDS =     -6234.16635352
  atomic energy  EATOM  =     16260.93880140
  Solvation  Ediel_sol  =         0.00000000
  ---------------------------------------------------
  free energy    TOTEN  =      -933.44868556 eV

  energy without entropy =     -933.44868556  energy(sigma->0) =     -933.44868556


--------------------------------------------------------------------------------------------------------




--------------------------------------- Iteration      1(   5)  ---------------------------------------


     EDDAV:  cpu time     44.7389: real time     44.7489
       DOS:  cpu time      0.0005: real time      0.0005
    CHARGE:  cpu time      0.8158: real time      0.8161
    MIXING:  cpu time      0.0052: real time      0.0052
    --------------------------------------------
      LOOP:  cpu time     45.5605: real time     45.5708

 eigenvalue-minimisations  :  6560
 total energy-change (2. order) :-0.7893363E+00  (-0.7875923E+00)
 number of electron     387.9999826 magnetization       1.9999999
 augmentation part       14.9542569 magnetization       0.0826620

 Broyden mixing:
  rms(total) = 0.54684E+01    rms(broyden)= 0.54668E+01
  rms(prec ) = 0.62311E+01
  weight for this iteration     100.00

 Free energy of the ion-electron system (eV)
  ---------------------------------------------------
  alpha Z        PSCENC =       207.73511157
  Ewald energy   TEWEN  =     37352.32367648
  -Hartree energ DENC   =    -49805.55147993
  -exchange      EXHF   =         0.00000000
  -V(xc)+E(xc)   XCENC  =      1301.95220673
  PAW double counting   =     12033.28159698   -12049.96224526
  entropy T*S    EENTRO =        -0.00000000
  eigenvalues    EBANDS =     -6234.95568983
  atomic energy  EATOM  =     16260.93880140
  Solvation  Ediel_sol  =         0.00000000
  ---------------------------------------------------
  free energy    TOTEN  =      -934.23802187 eV

  energy without entropy =     -934.23802187  energy(sigma->0) =     -934.23802187


--------------------------------------------------------------------------------------------------------




--------------------------------------- Iteration      1(   6)  ---------------------------------------


    POTLOK:  cpu time      0.1657: real time      0.1722
    SETDIJ:  cpu time      0.0078: real time      0.0078
     EDDAV:  cpu time     41.6443: real time     41.6458
       DOS:  cpu time      0.0006: real time      0.0006
    CHARGE:  cpu time      0.7556: real time      0.7556
    MIXING:  cpu time      0.0046: real time      0.0171
    --------------------------------------------
      LOOP:  cpu time     42.5787: real time     42.5991

 eigenvalue-minimisations  :  5920
 total energy-change (2. order) : 0.7640386E+02  (-0.2224779E+02)
 number of electron     387.9999877 magnetization       1.9999998
 augmentation part       11.8583449 magnetization       0.0710461

 Broyden mixing:
  rms(total) = 0.24810E+01    rms(broyden)= 0.24806E+01
  rms(prec ) = 0.26930E+01
  weight for this iteration     100.00

 eigenvalues of (default mixing * dielectric matrix)
  average eigenvalue GAMMA=   1.1236
  1.1236

 Free energy of the ion-electron system (eV)
  ---------------------------------------------------
  alpha Z        PSCENC =       207.73511157
  Ewald energy   TEWEN  =     37352.32367648
  -Hartree energ DENC   =    -50628.72150265
  -exchange      EXHF   =         0.00000000
  -V(xc)+E(xc)   XCENC  =      1343.56690308
  PAW double counting   =     21641.52917436   -21669.07038848
  entropy T*S    EENTRO =        -0.00000000
  eigenvalues    EBANDS =     -5366.13593427
  atomic energy  EATOM  =     16260.93880140
  Solvation  Ediel_sol  =         0.00000000
  ---------------------------------------------------
  free energy    TOTEN  =      -857.83415852 eV

  energy without entropy =     -857.83415852  energy(sigma->0) =     -857.83415852


--------------------------------------------------------------------------------------------------------




--------------------------------------- Iteration      1(   7)  ---------------------------------------


    POTLOK:  cpu time      0.1659: real time      0.1663
    SETDIJ:  cpu time      0.0076: real time      0.0076
     EDDAV:  cpu time     41.7556: real time     41.7567
       DOS:  cpu time      0.0007: real time      0.0007
    CHARGE:  cpu time      0.7753: real time      0.7753
    MIXING:  cpu time      0.0045: real time      0.0073
    --------------------------------------------
      LOOP:  cpu time     42.7095: real time     42.7139

 eigenvalue-minimisations  :  5936
 total energy-change (2. order) : 0.8020332E+01  (-0.1531617E+01)
 number of electron     387.9999885 magnetization       1.9999997
 augmentation part       11.4692225 magnetization       0.0715632

 Broyden mixing:
  rms(total) = 0.15225E+01    rms(broyden)= 0.15223E+01
  rms(prec ) = 0.16374E+01
  weight for this iteration     100.00

 eigenvalues of (default mixing * dielectric matrix)
  average eigenvalue GAMMA=   1.7373
  1.1055  2.3691

 Free energy of the ion-electron system (eV)
  ---------------------------------------------------
  alpha Z        PSCENC =       207.73511157
  Ewald energy   TEWEN  =     37352.32367648
  -Hartree energ DENC   =    -50954.64704908
  -exchange      EXHF   =         0.00000000
  -V(xc)+E(xc)   XCENC  =      1355.10364986
  PAW double counting   =     30497.34686122   -30529.37423401
  entropy T*S    EENTRO =        -0.00000000
  eigenvalues    EBANDS =     -5039.24064365
  atomic energy  EATOM  =     16260.93880140
  Solvation  Ediel_sol  =         0.00000000
  ---------------------------------------------------
  free energy    TOTEN  =      -849.81382622 eV

  energy without entropy =     -849.81382622  energy(sigma->0) =     -849.81382622


--------------------------------------------------------------------------------------------------------




--------------------------------------- Iteration      1(   8)  ---------------------------------------


    POTLOK:  cpu time      0.1644: real time      0.1680
    SETDIJ:  cpu time      0.0079: real time      0.0079
     EDDAV:  cpu time     40.5636: real time     40.5648
       DOS:  cpu time      0.0012: real time      0.0012
    CHARGE:  cpu time      0.7551: real time      0.7551
    MIXING:  cpu time      0.0044: real time      0.0044
    --------------------------------------------
      LOOP:  cpu time     41.4966: real time     41.5014

 eigenvalue-minimisations  :  5744
 total energy-change (2. order) : 0.4028186E+01  (-0.9325363E+00)
 number of electron     387.9999887 magnetization       1.9999997
 augmentation part       11.4152911 magnetization       0.0714256

 Broyden mixing:
  rms(total) = 0.27817E+00    rms(broyden)= 0.27803E+00
  rms(prec ) = 0.34726E+00
  weight for this iteration     100.00

 eigenvalues of (default mixing * dielectric matrix)
  average eigenvalue GAMMA=   1.4552
  2.5265  1.0972  0.7418

 Free energy of the ion-electron system (eV)
  ---------------------------------------------------
  alpha Z        PSCENC =       207.73511157
  Ewald energy   TEWEN  =     37352.32367648
  -Hartree energ DENC   =    -51342.04429053
  -exchange      EXHF   =         0.00000000
  -V(xc)+E(xc)   XCENC  =      1366.33377781
  PAW double counting   =     44304.98339654   -44341.19740936
  entropy T*S    EENTRO =        -0.00000000
  eigenvalues    EBANDS =     -4654.85870419
  atomic energy  EATOM  =     16260.93880140
  Solvation  Ediel_sol  =         0.00000000
  ---------------------------------------------------
  free energy    TOTEN  =      -845.78564030 eV

  energy without entropy =     -845.78564030  energy(sigma->0) =     -845.78564030


--------------------------------------------------------------------------------------------------------




--------------------------------------- Iteration      1(   9)  ---------------------------------------


    POTLOK:  cpu time      0.1680: real time      0.1687
    SETDIJ:  cpu time      0.0076: real time      0.0076
     EDDAV:  cpu time     40.5111: real time     40.5124
       DOS:  cpu time      0.0007: real time      0.0007
    CHARGE:  cpu time      0.7536: real time      0.7536
    MIXING:  cpu time      0.0048: real time      0.0048
    --------------------------------------------
      LOOP:  cpu time     41.4457: real time     41.4478

 eigenvalue-minimisations  :  5696
 total energy-change (2. order) :-0.4383744E-01  (-0.3533840E-01)
 number of electron     387.9999889 magnetization       1.9999997
 augmentation part       11.3452529 magnetization       0.0688692

 Broyden mixing:
  rms(total) = 0.14655E+00    rms(broyden)= 0.14651E+00
  rms(prec ) = 0.22043E+00
  weight for this iteration     100.00

 eigenvalues of (default mixing * dielectric matrix)
  average eigenvalue GAMMA=   1.3092
  2.4343  1.0767  1.0767  0.6489

 Free energy of the ion-electron system (eV)
  ---------------------------------------------------
  alpha Z        PSCENC =       207.73511157
  Ewald energy   TEWEN  =     37352.32367648
  -Hartree energ DENC   =    -51384.02809858
  -exchange      EXHF   =         0.00000000
  -V(xc)+E(xc)   XCENC  =      1367.08748594
  PAW double counting   =     44164.94936073   -44200.98402781
  entropy T*S    EENTRO =        -0.00000000
  eigenvalues    EBANDS =     -4613.85178745
  atomic energy  EATOM  =     16260.93880140
  Solvation  Ediel_sol  =         0.00000000
  ---------------------------------------------------
  free energy    TOTEN  =      -845.82947774 eV

  energy without entropy =     -845.82947774  energy(sigma->0) =     -845.82947774


--------------------------------------------------------------------------------------------------------




--------------------------------------- Iteration      1(  10)  ---------------------------------------


    POTLOK:  cpu time      0.1571: real time      0.1652
    SETDIJ:  cpu time      0.0076: real time      0.0076
     EDDAV:  cpu time     43.1204: real time     43.1214
       DOS:  cpu time      0.0009: real time      0.0009
    CHARGE:  cpu time      0.7548: real time      0.7548
    MIXING:  cpu time      0.0053: real time      0.0053
    --------------------------------------------
      LOOP:  cpu time     44.0460: real time     44.0552

 eigenvalue-minimisations  :  6192
 total energy-change (2. order) :-0.1246499E-01  (-0.7968346E-02)
 number of electron     387.9999890 magnetization       1.9999997
 augmentation part       11.3081846 magnetization       0.0690608

 Broyden mixing:
  rms(total) = 0.91567E-01    rms(broyden)= 0.91549E-01
  rms(prec ) = 0.16267E+00
  weight for this iteration     100.00

 eigenvalues of (default mixing * dielectric matrix)
  average eigenvalue GAMMA=   1.3723
  2.1592  2.1592  0.9605  0.9605  0.6224

 Free energy of the ion-electron system (eV)
  ---------------------------------------------------
  alpha Z        PSCENC =       207.73511157
  Ewald energy   TEWEN  =     37352.32367648
  -Hartree energ DENC   =    -51423.89123338
  -exchange      EXHF   =         0.00000000
  -V(xc)+E(xc)   XCENC  =      1367.50928036
  PAW double counting   =     43941.64429739   -43977.35910173
  entropy T*S    EENTRO =        -0.00000000
  eigenvalues    EBANDS =     -4574.74277481
  atomic energy  EATOM  =     16260.93880140
  Solvation  Ediel_sol  =         0.00000000
  ---------------------------------------------------
  free energy    TOTEN  =      -845.84194274 eV

  energy without entropy =     -845.84194274  energy(sigma->0) =     -845.84194274


--------------------------------------------------------------------------------------------------------




--------------------------------------- Iteration      1(  11)  ---------------------------------------


    POTLOK:  cpu time      0.1710: real time      0.1717
    SETDIJ:  cpu time      0.0081: real time      0.0081
     EDDAV:  cpu time     39.9840: real time     39.9853
       DOS:  cpu time      0.0006: real time      0.0006
    CHARGE:  cpu time      0.7761: real time      0.7761
    MIXING:  cpu time      0.0055: real time      0.0055
    --------------------------------------------
      LOOP:  cpu time     40.9454: real time     40.9474

 eigenvalue-minimisations  :  5616
 total energy-change (2. order) : 0.3121313E-01  (-0.4469326E-02)
 number of electron     387.9999890 magnetization       1.9999997
 augmentation part       11.3156455 magnetization       0.0684578

 Broyden mixing:
  rms(total) = 0.39133E-01    rms(broyden)= 0.39121E-01
  rms(prec ) = 0.97387E-01
  weight for this iteration     100.00

 eigenvalues of (default mixing * dielectric matrix)
  average eigenvalue GAMMA=   1.4066
  2.4519  2.4519  1.0646  1.0646  0.7953  0.6116

 Free energy of the ion-electron system (eV)
  ---------------------------------------------------
  alpha Z        PSCENC =       207.73511157
  Ewald energy   TEWEN  =     37352.32367648
  -Hartree energ DENC   =    -51497.75718667
  -exchange      EXHF   =         0.00000000
  -V(xc)+E(xc)   XCENC  =      1368.15826989
  PAW double counting   =     44050.89426126   -44086.26972064
  entropy T*S    EENTRO =        -0.00000000
  eigenvalues    EBANDS =     -4501.83394288
  atomic energy  EATOM  =     16260.93880140
  Solvation  Ediel_sol  =         0.00000000
  ---------------------------------------------------
  free energy    TOTEN  =      -845.81072961 eV

  energy without entropy =     -845.81072961  energy(sigma->0) =     -845.81072961


--------------------------------------------------------------------------------------------------------




--------------------------------------- Iteration      1(  12)  ---------------------------------------


    POTLOK:  cpu time      0.1520: real time      0.1660
    SETDIJ:  cpu time      0.0077: real time      0.0077
     EDDAV:  cpu time     39.5333: real time     39.5342
       DOS:  cpu time      0.0007: real time      0.0007
    CHARGE:  cpu time      0.7760: real time      0.7760
    MIXING:  cpu time      0.0058: real time      0.0058
    --------------------------------------------
      LOOP:  cpu time     40.4754: real time     40.4904

 eigenvalue-minimisations  :  5680
 total energy-change (2. order) : 0.1068955E-01  (-0.2263536E-02)
 number of electron     387.9999890 magnetization       1.9999997
 augmentation part       11.3129775 magnetization       0.0683927

 Broyden mixing:
  rms(total) = 0.31403E-01    rms(broyden)= 0.31393E-01
  rms(prec ) = 0.71340E-01
  weight for this iteration     100.00

 eigenvalues of (default mixing * dielectric matrix)
  average eigenvalue GAMMA=   1.3981
  2.5648  2.5648  1.1646  1.1646  0.8844  0.8359  0.6074

 Free energy of the ion-electron system (eV)
  ---------------------------------------------------
  alpha Z        PSCENC =       207.73511157
  Ewald energy   TEWEN  =     37352.32367648
  -Hartree energ DENC   =    -51546.19450276
  -exchange      EXHF   =         0.00000000
  -V(xc)+E(xc)   XCENC  =      1368.64559059
  PAW double counting   =     44101.20532656   -44136.52882909
  entropy T*S    EENTRO =        -0.00000000
  eigenvalues    EBANDS =     -4453.92521480
  atomic energy  EATOM  =     16260.93880140
  Solvation  Ediel_sol  =         0.00000000
  ---------------------------------------------------
  free energy    TOTEN  =      -845.80004006 eV

  energy without entropy =     -845.80004006  energy(sigma->0) =     -845.80004006


--------------------------------------------------------------------------------------------------------




--------------------------------------- Iteration      1(  13)  ---------------------------------------


    POTLOK:  cpu time      0.1639: real time      0.1644
    SETDIJ:  cpu time      0.0077: real time      0.0077
     EDDAV:  cpu time     38.6345: real time     38.6355
       DOS:  cpu time      0.0006: real time      0.0006
    CHARGE:  cpu time      0.7774: real time      0.7774
    MIXING:  cpu time      0.0062: real time      0.0062
    --------------------------------------------
      LOOP:  cpu time     39.5903: real time     39.5918

 eigenvalue-minimisations  :  5504
 total energy-change (2. order) : 0.6457893E-02  (-0.2197403E-02)
 number of electron     387.9999890 magnetization       1.9999997
 augmentation part       11.3018091 magnetization       0.0686124

 Broyden mixing:
  rms(total) = 0.16925E-01    rms(broyden)= 0.16908E-01
  rms(prec ) = 0.40965E-01
  weight for this iteration     100.00

 eigenvalues of (default mixing * dielectric matrix)
  average eigenvalue GAMMA=   1.5329
  3.4138  2.6142  1.8773  1.0304  1.0304  0.9487  0.6096  0.7386

 Free energy of the ion-electron system (eV)
  ---------------------------------------------------
  alpha Z        PSCENC =       207.73511157
  Ewald energy   TEWEN  =     37352.32367648
  -Hartree energ DENC   =    -51603.39774595
  -exchange      EXHF   =         0.00000000
  -V(xc)+E(xc)   XCENC  =      1369.15780889
  PAW double counting   =     43967.88398684   -44003.20464951
  entropy T*S    EENTRO =        -0.00000000
  eigenvalues    EBANDS =     -4397.23057189
  atomic energy  EATOM  =     16260.93880140
  Solvation  Ediel_sol  =         0.00000000
  ---------------------------------------------------
  free energy    TOTEN  =      -845.79358217 eV

  energy without entropy =     -845.79358217  energy(sigma->0) =     -845.79358217


--------------------------------------------------------------------------------------------------------




--------------------------------------- Iteration      1(  14)  ---------------------------------------


    POTLOK:  cpu time      0.1637: real time      0.1644
    SETDIJ:  cpu time      0.0076: real time      0.0076
     EDDAV:  cpu time     38.2034: real time     38.2043
       DOS:  cpu time      0.0006: real time      0.0006
    CHARGE:  cpu time      0.7766: real time      0.7766
    MIXING:  cpu time      0.0066: real time      0.0066
    --------------------------------------------
      LOOP:  cpu time     39.1585: real time     39.1602

 eigenvalue-minimisations  :  5376
 total energy-change (2. order) : 0.1757971E-01  (-0.1195580E-02)
 number of electron     387.9999891 magnetization       1.9999997
 augmentation part       11.2984015 magnetization       0.0685892

 Broyden mixing:
  rms(total) = 0.12240E-01    rms(broyden)= 0.12234E-01
  rms(prec ) = 0.27000E-01
  weight for this iteration     100.00

 eigenvalues of (default mixing * dielectric matrix)
  average eigenvalue GAMMA=   1.5861
  4.3526  2.5054  2.1202  1.0292  1.0292  0.9633  0.9633  0.6122  0.7000

 Free energy of the ion-electron system (eV)
  ---------------------------------------------------
  alpha Z        PSCENC =       207.73511157
  Ewald energy   TEWEN  =     37352.32367648
  -Hartree energ DENC   =    -51636.01515389
  -exchange      EXHF   =         0.00000000
  -V(xc)+E(xc)   XCENC  =      1369.37876652
  PAW double counting   =     43916.26108580   -43951.58904164
  entropy T*S    EENTRO =        -0.00000000
  eigenvalues    EBANDS =     -4364.80924869
  atomic energy  EATOM  =     16260.93880140
  Solvation  Ediel_sol  =         0.00000000
  ---------------------------------------------------
  free energy    TOTEN  =      -845.77600246 eV

  energy without entropy =     -845.77600246  energy(sigma->0) =     -845.77600246


--------------------------------------------------------------------------------------------------------




--------------------------------------- Iteration      1(  15)  ---------------------------------------


    POTLOK:  cpu time      0.1616: real time      0.1655
    SETDIJ:  cpu time      0.0077: real time      0.0076
     EDDAV:  cpu time     39.3584: real time     39.3594
       DOS:  cpu time      0.0009: real time      0.0009
    CHARGE:  cpu time      0.7793: real time      0.7794
    MIXING:  cpu time      0.0069: real time      0.0069
    --------------------------------------------
      LOOP:  cpu time     40.3147: real time     40.3197

 eigenvalue-minimisations  :  5520
 total energy-change (2. order) :-0.8303138E-02  (-0.1727353E-03)
 number of electron     387.9999891 magnetization       1.9999997
 augmentation part       11.2963512 magnetization       0.0686229

 Broyden mixing:
  rms(total) = 0.91124E-02    rms(broyden)= 0.91098E-02
  rms(prec ) = 0.20006E-01
  weight for this iteration     100.00

 eigenvalues of (default mixing * dielectric matrix)
  average eigenvalue GAMMA=   1.5941
  4.8954  2.4516  2.2530  1.1802  1.0428  1.0428  0.9973  0.7983  0.6148  0.6646

 Free energy of the ion-electron system (eV)
  ---------------------------------------------------
  alpha Z        PSCENC =       207.73511157
  Ewald energy   TEWEN  =     37352.32367648
  -Hartree energ DENC   =    -51649.74620070
  -exchange      EXHF   =         0.00000000
  -V(xc)+E(xc)   XCENC  =      1369.43203966
  PAW double counting   =     43921.32802752   -43956.66370439
  entropy T*S    EENTRO =        -0.00000000
  eigenvalues    EBANDS =     -4351.13205712
  atomic energy  EATOM  =     16260.93880140
  Solvation  Ediel_sol  =         0.00000000
  ---------------------------------------------------
  free energy    TOTEN  =      -845.78430560 eV

  energy without entropy =     -845.78430560  energy(sigma->0) =     -845.78430560


--------------------------------------------------------------------------------------------------------




--------------------------------------- Iteration      1(  16)  ---------------------------------------


    POTLOK:  cpu time      0.1577: real time      0.1649
    SETDIJ:  cpu time      0.0076: real time      0.0076
     EDDAV:  cpu time     40.1797: real time     40.1812
       DOS:  cpu time      0.0006: real time      0.0006
    CHARGE:  cpu time      0.7583: real time      0.7583
    MIXING:  cpu time      0.0071: real time      0.0071
    --------------------------------------------
      LOOP:  cpu time     41.1110: real time     41.1197

 eigenvalue-minimisations  :  5648
 total energy-change (2. order) :-0.1769481E-01  (-0.1448227E-03)
 number of electron     387.9999891 magnetization       1.9999997
 augmentation part       11.2963028 magnetization       0.0684017

[...]
  301                  map_scatter                           0.002359                 12   8
  302          m_sumb_d                              0.000539                          5   4
  303          m_max_i                               0.000326                          1   4
  304        forhar                                0.036339                            2   3
  305          m_sumb_d                              0.000683                          2   4
  306        strehar                               0.004651                            1   3
  307          m_sumb_d                              0.000298                          1   4
  308        chggra                                0.013145                            1   3
  309          fft3d_mpi                             0.007185                          3   4
  310            fftbrc_mpi                            0.006999                        3   5
  311              fftbas_plan_mpi                       0.006999                      3   6
  312                dfftw_execute                         0.001273                    9   7
  313                map_backward                          0.001834                    2   7
  314                  map_gather                            0.000614                  1   8
  315                  m_alltoallv_z                         0.001070                  1   8
  316                  map_scatter                           0.000147                  1   8
  317                map_forward                           0.003483                    4   7
  318                  map_gather                            0.000880                  2   8
  319                  m_alltoallv_z                         0.002295                  2   8
  320                  map_scatter                           0.000303                  2   8
  321          m_max_i                               0.000051                          1   4
  322          m_sumb_d                              0.000008                          2   4
  323          pothar                                0.001161                          1   4
  324            m_sumb_d                              0.000620                        1   5
  325        brmix                                 0.014294                            1   3
  326          m_max_i                               0.000073                          1   4
  327          m_sumb_d                              0.000657                          6   4
  328          brpre                                 0.000054                          2   4
  329          setg0                                 0.000467                          1   4
  330          broyd                                 0.009569                          1   4
  331            m_sumb_d                              0.003461                       31   5
  332            brget                                 0.002429                      153   5
  333            brsav                                 0.000278                       29   5
  334        m_bcast_d                             0.000122                            2   3
  335      potlok                                0.145985                              1   2
  336        fft3d_mpi                             0.068447                           26   3
  337          fftbrc_mpi                            0.066233                         26   4
  338            fftbas_plan_mpi                       0.066214                       26   5
  339              dfftw_execute                         0.013450                     78   6
  340              map_forward                           0.024779                     28   6
  341                map_gather                            0.005433                   16   7
  342                m_alltoallv_z                         0.016852                   16   7
  343                map_scatter                           0.002457                   16   7
  344              map_backward                          0.024455                     24   6
  345                map_gather                            0.004731                   12   7
  346                m_alltoallv_z                         0.017290                   12   7
  347                map_scatter                           0.002403                   12   7
  348        m_sumb_d                              0.000726                            5   3
  349        m_max_i                               0.000115                            1   3
  350        pothar                                0.001155                            1   3
  351          m_sumb_d                              0.000242                          1   4
  352        m_bcast_d                             0.003856                            2   3
  353      set_dd_magatom                        0.000001                              1   2
  354      set_dd_paw                            0.005799                              1   2
  355        set_rsgf_all                          0.000000                            1   3
  356        rad_aug_charge                        0.000011                            2   3
  357        rad_pot                               0.002544                            2   3
  358          rad_lda_xc_spin                       0.002153                          2   4
  359          rad_gga_xc_spin                       0.000280                          2   4
  360        rad_pot_weight                        0.000011                            2   3
  361        rad_proj                              0.000057                            4   3
  362        rad_aug_proj                          0.000007                            2   3
  363        m_sumb_d                              0.002694                            7   3
  364      setwdes                               0.000013                             10   2
  365      densta                                0.000332                              1   2
  366        m_sumb_d                              0.000216                           15   3
  367        setwdes                               0.000001                            2   3
 
 Flat profile
 ============
 
             routine name                   CPU           calls
 ---------------------------------------------------------------
 vnlac0|dgemv                          213.720710     1383705
 proj1                                 162.057382       11225
 work_mul_crexp                        142.940711     1383705
 crexp_mul_wave                        118.078788     1088825
 dfftw_execute                          73.384293       97758
 orth1                                  64.894198       42875
 m_alltoall_d                           51.934293      105295
 m_alltoallv_z                          49.637357       32688
 vhamil                                 48.395295       14265
 ggemm                                  42.521532       18905
 total_time                             29.558115           1
 m_sumb_d                               29.190808      108456
 fftwav_mpi                             27.450165       17515
 phase                                  24.453984         346
 map_gather                             20.652809       32688
 map_scatter                            18.709196       32688
 fornl                                  17.331226           1
 map_forward                            12.982713       35792
 redis_pw                               12.804492       38755
 wfinit                                 11.325622           1
 lincom                                 10.526799         300
 fftbas_plan_mpi                         8.522055       32586
 lapack                                  7.588140       14265
 fftext_mpi                              5.870241       14265
 eccp                                    5.158255        4640
 w1_copy                                 4.555720       42795
 pdssyex_zheevx                          4.196522         290
 kinhamil                                3.467674       14265
 eddav                                   2.951066          29
 hamiltmu                                2.648929       14265
 m_bcast_z                               2.361700       16985
 pw_charge                               2.341083        3250
 vnlac0                                  2.305107       14265
 apply_precond                           1.904135        9625
 potlok                                  1.896451          26
 spher                                   0.894840          20
 elmin                                   0.676076           1
 setup_precond                           0.667271        4640
 m_bcast_d                               0.299083       28584
 overl1                                  0.259326       14265
 overl                                   0.216725       23900
 soft_charge                             0.140052          25
 fft3d_mpi                               0.128388       32586
 redis_proj                              0.105300       48390
 map_backward                            0.097497       29380
 newband                                 0.076009       14555
 setdij_                                 0.073393          53
 augmentation_charge                     0.072836          25
 brmix                                   0.070912          25
 potxc                                   0.066424           1
 rad_lda_xc_spin                         0.058597          54
 broyd                                   0.048970          25
 fftwav_w1                               0.045178       17515
 forhar                                  0.035656           2
 strkin                                  0.034417           1
 fftbas_mpi                              0.033854       31780
 choleski                                0.032075          10
 w1_projall                              0.029616        9625
 brget                                   0.027172        1928
 pothar                                  0.025366          27
 set_charge                              0.024455          25
 strenl                                  0.019612           1
 forloc                                  0.018090           1
 m_max_i                                 0.015987          78
 stufak                                  0.015189           1
 setg0                                   0.012890          27
 set_dd_paw                              0.011343          27
 fft_gq                                  0.011235          25
 depsum                                  0.011164          25
 rad_gga_xc_spin                         0.007618          54
 brsav                                   0.007135         429
 truncate_high_frequency_w1              0.006328       18905
 force_and_stress                        0.005069           1
 strelo                                  0.005024           1
 chggra                                  0.004740           1
 orthch                                  0.004487           1
 strehar                                 0.004353           1
 rad_lda_xc                              0.004331          24
 densta                                  0.003472          30
 rad_pot                                 0.003278          78
 bandgap                                 0.003158           1
 rsp                                     0.002733           1
 rad_proj                                0.001744         120
 setwdes                                 0.001502        1039
 rad_gga_xc                              0.001380          24
 brpre                                   0.001341          50
 splcof                                  0.000877          53
 fewald                                  0.000475           1
 proj                                    0.000434           5
 rad_pot_weight                          0.000357          66
 fftbrc_mpi                              0.000354         806
 rad_aug_charge                          0.000332          57
 rad_aug_proj                            0.000202          60
 rcp                                     0.000186           1
 brgrid                                  0.000138           1
 fermat_razor                            0.000051           1
 fordep                                  0.000050           1
 proall                                  0.000041           1
 set_rsgf_all                            0.000027          27
 crpa_reader                             0.000024           1
 vectorpot                               0.000021          26
 kpar_sync_all                           0.000014           1
 set_dd_magatom                          0.000009          27
 rotate_active_occupied_orbital          0.000002           1
 splval                                  0.000001           3
 redis_pw_over_bands                     0.000000           1
 ---------------------------------------------------------------
  summed up times    1242.7438559532166     
 
 Accumulative profile
 ====================
 
             routine name                   CPU           calls
 ---------------------------------------------------------------
 total_time                           1242.743856           1
 elmin                                1129.050792           1
 eddav                                1106.108541          29
 hamiltmu                              504.668684       14265
 vnlac0                                361.971867       14265
 proj1                                 282.192167       11225
 w1_projall                            243.749121        9625
 vnlac0|dgemv                          213.720710     1383705
 fft3d_mpi                             184.148516       32586
 fftbas_plan_mpi                       183.985919       32586
 fftbas_mpi                            181.970624       31780
 work_mul_crexp                        142.940711     1383705
 fftwav_w1                             127.469523       17515
 fftwav_mpi                            127.424345       17515
 crexp_mul_wave                        118.078788     1088825
 kinhamil                               91.393267       14265
 fftext_mpi                             87.925593       14265
 dfftw_execute                          73.384293       97758
 orth1                                  64.894198       42875
 map_forward                            61.671850       35792
 force_and_stress                       57.251789           1
 m_alltoall_d                           51.934293      105295
 m_alltoallv_z                          49.637357       32688
 newband                                49.444547       14555
 vhamil                                 48.395295       14265
 redis_pw                               43.054450       38755
 ggemm                                  42.521532       18905
 map_backward                           40.407722       29380
 strenl                                 38.500310           1
 m_sumb_d                               29.190808      108456
 phase                                  24.453984         346
 redis_proj                             21.789634       48390
 map_gather                             20.652809       32688
 set_charge                             18.879281          25
 map_scatter                            18.709196       32688
 soft_charge                            18.624155          25
 fornl                                  17.705385           1
 wfinit                                 12.908762           1
 lincom                                 10.526799         300
 lapack                                  7.588140       14265
 eccp                                    6.202900        4640
 w1_copy                                 4.555720       42795
 proall                                  4.511510           1
 pdssyex_zheevx                          4.196573         290
 proj                                    4.143773           5
 potlok                                  3.860044          26
 m_bcast_z                               2.361700       16985
 pw_charge                               2.341083        3250
 fftbrc_mpi                              2.049504         806
 apply_precond                           1.904135        9625
 orthch                                  0.936868           1
 spher                                   0.894840          20
 setup_precond                           0.742107        4640
 m_bcast_d                               0.299083       28584
 overl1                                  0.259326       14265
 brmix                                   0.219621          25
 overl                                   0.216725       23900
 augmentation_charge                     0.213432          25
 set_dd_paw                              0.156993          27
 potxc                                   0.125556           1
 broyd                                   0.122468          25
 fft_gq                                  0.110571          25
 setdij_                                 0.091232          53
 rad_pot                                 0.075204          78
 rad_lda_xc_spin                         0.058597          54
 forhar                                  0.036339           2
 strkin                                  0.034892           1
 choleski                                0.032075          10
 pothar                                  0.030121          27
 brget                                   0.027172        1928
 forloc                                  0.018259           1
 depsum                                  0.017238          25
 m_max_i                                 0.015987          78
 stufak                                  0.015189           1
 chggra                                  0.013145           1
 densta                                  0.012913          30
 setg0                                   0.012890          27
 fordep                                  0.009789           1
 rad_gga_xc_spin                         0.007618          54
 brsav                                   0.007135         429
 truncate_high_frequency_w1              0.006328       18905
 fewald                                  0.005339           1
 strelo                                  0.005206           1
 strehar                                 0.004651           1
 rad_lda_xc                              0.004331          24
 bandgap                                 0.003158           1
 rsp                                     0.002733           1
 rad_proj                                0.001744         120
 brgrid                                  0.001716           1
 setwdes                                 0.001502        1039
 rad_gga_xc                              0.001380          24
 brpre                                   0.001341          50
 splcof                                  0.000877          53
 rad_pot_weight                          0.000357          66
 rad_aug_charge                          0.000332          57
 rad_aug_proj                            0.000202          60
 rcp                                     0.000186           1
 fermat_razor                            0.000051           1
 set_rsgf_all                            0.000027          27
 crpa_reader                             0.000024           1
 vectorpot                               0.000021          26
 kpar_sync_all                           0.000014           1
 set_dd_magatom                          0.000009          27
 rotate_active_occupied_orbital          0.000002           1
 splval                                  0.000001           3
 redis_pw_over_bands                     0.000000           1
 ---------------------------------------------------------------
 
Profiling took   1.157170  0.720807  0.005543  0.005495 seconds
Profiling took   1.621900 seconds
