 vasp.6.4.3 19Mar24 (build Jun 19 2024 20:28:10) complex                         
 executed on             LinuxGNU date 2025.01.14  19:56:45
 running   64 mpi-ranks, with    1 threads/rank, on    1 nodes
 distrk:  each k-point on   64 cores,    1 groups
 distr:  one band on NCORE=   4 cores,   16 groups


--------------------------------------------------------------------------------------------------------


 INCAR:
   ENCUT = 500
   EDIFF = 1E-6
   ISMEAR = -2
   ISYM = 0
   ISPIN = 2
   NUPDOWN = 2
   LWAVE = .FALSE.
   ALGO = VeryFast
   LDIAG = .FALSE.
   LORBIT = 11
   FERWE = 194*1 1*0 1*1 60*0  194*1 1*0 1*1 60*0  194*1 1*0 1*1 60*0  194*1 1*0 1*1 60*0  194*1 1*0 1*1 60*0
   FERDO = 193*1 63*0  193*1 63*0  193*1 63*0  193*1 63*0  193*1 63*0
   NCORE = 4

 POTCAR:    PAW_PBE B 06Sep2000                   
 POTCAR:    PAW_PBE N 08Apr2002                   
 POTCAR:    PAW_PBE C 08Apr2002                   
 -----------------------------------------------------------------------------
|                                                                             |
|           W    W    AA    RRRRR   N    N  II  N    N   GGGG   !!!           |
|           W    W   A  A   R    R  NN   N  II  NN   N  G    G  !!!           |
|           W    W  A    A  R    R  N N  N  II  N N  N  G       !!!           |
|           W WW W  AAAAAA  RRRRR   N  N N  II  N  N N  G  GGG   !            |
|           WW  WW  A    A  R   R   N   NN  II  N   NN  G    G                |
|           W    W  A    A  R    R  N    N  II  N    N   GGGG   !!!           |
|                                                                             |
|     You use a magnetic or noncollinear calculation, but did not specify     |
|     the initial magnetic moment with the MAGMOM tag. Note that a            |
|     default of 0.021 will be used for all atoms. This ferromagnetic         |
|     setup may break the symmetry of the crystal, in particular it may       |
|     rule out finding an antiferromagnetic solution. Thence, we              |
|     recommend setting the initial magnetic moment manually or verifying     |
|     carefully that this magnetic setup is desired.                          |
|                                                                             |
 -----------------------------------------------------------------------------

 POTCAR:    PAW_PBE B 06Sep2000                   
   SHA256 =  a32ced30f5ae56fd4d10b4325ff17eb3e4e38ee0f4288bc219fb012fddfa6e97 B/POTCAR              
   COPYR  = (c) Copyright 06Sep2000 Georg Kresse                                                    
   COPYR  = This file is part of the software VASP. Any use, copying, and all other rights are regul
   COPYR  = If you do not have a valid VASP license, you may not use, copy or distribute this file. 
   VRHFIN =B: s2p1                                                                                  
   LEXCH  = PE                                                                                      
   EATOM  =    71.1703 eV,    5.2309 Ry                                                             
                                                                                                    
   TITEL  = PAW_PBE B 06Sep2000                                                                     
   LULTRA =        F    use ultrasoft PP ?                                                          
   IUNSCR =        1    unscreen: 0-lin 1-nonlin 2-no                                               
   RPACOR =    1.200    partial core radius                                                         
   POMASS =   10.811; ZVAL   =    3.000    mass and valenz                                          
   RCORE  =    1.700    outmost cutoff radius                                                       
   RWIGS  =    1.710; RWIGS  =    0.905    wigner-seitz radius (au A)                               
   ENMAX  =  318.614; ENMIN  =  238.960 eV                                                          
   ICORE  =        2    local potential                                                             
   LCOR   =        T    correct aug charges                                                         
   LPAW   =        T    paw PP                                                                      
   EAUG   =  535.514                                                                                
   DEXC   =    0.000                                                                                
   RMAX   =    1.732    core radius for proj-oper                                                   
   RAUG   =    1.300    factor for augmentation sphere                                              
   RDEP   =    1.757    radius for radial grids                                                     
   RDEPT  =    1.436    core radius for aug-charge                                                  
                                                                                                    
   Atomic configuration                                                                             
    4 entries                                                                                       
     n  l   j            E        occ.                                                              
     1  0  0.50      -180.5896   2.0000                                                             
     2  0  0.50        -9.4431   2.0000                                                             
     2  1  0.50        -3.6068   1.0000                                                             
     3  2  1.50        -4.0817   0.0000                                                             
   Description                                                                                      
     l       E           TYP  RCUT    TYP  RCUT                                                     
     0     -9.4430752     23  1.500                                                                 
     0      0.8675899     23  1.500                                                                 
     1     -3.6067955     23  1.700                                                                 
     1      6.1086146     23  1.700                                                                 
     2     -4.0817478      7  1.700                                                                 
  local pseudopotential read in
  partial core-charges read in
  partial kinetic energy density read in
  atomic valenz-charges read in
  non local Contribution for L=           0  read in
    real space projection operators read in
  non local Contribution for L=           0  read in
    real space projection operators read in
  non local Contribution for L=           1  read in
    real space projection operators read in
  non local Contribution for L=           1  read in
    real space projection operators read in
    PAW grid and wavefunctions read in

   number of l-projection  operators is LMAX  =           4
   number of lm-projection operators is LMMAX =           8

 POTCAR:    PAW_PBE N 08Apr2002                   
   SHA256 =  e053789ff3a61a86a1b75d8a110fcc91f86041011e7b0817c7c99e4e8a6349d7 N/POTCAR              
   COPYR  = (c) Copyright 08Apr2002 Georg Kresse                                                    
   COPYR  = This file is part of the software VASP. Any use, copying, and all other rights are regul
   COPYR  = If you do not have a valid VASP license, you may not use, copy or distribute this file. 
   VRHFIN =N: s2p3                                                                                  
   LEXCH  = PE                                                                                      
   EATOM  =   264.5486 eV,   19.4438 Ry                                                             
                                                                                                    
   TITEL  = PAW_PBE N 08Apr2002                                                                     
   LULTRA =        F    use ultrasoft PP ?                                                          
   IUNSCR =        1    unscreen: 0-lin 1-nonlin 2-no                                               
   RPACOR =    1.200    partial core radius                                                         
   POMASS =   14.001; ZVAL   =    5.000    mass and valenz                                          
   RCORE  =    1.500    outmost cutoff radius                                                       
   RWIGS  =    1.400; RWIGS  =    0.741    wigner-seitz radius (au A)                               
   ENMAX  =  400.000; ENMIN  =  300.000 eV                                                          
   ICORE  =        2    local potential                                                             
   LCOR   =        T    correct aug charges                                                         
   LPAW   =        T    paw PP                                                                      
   EAUG   =  627.112                                                                                
   DEXC   =    0.000                                                                                
   RMAX   =    1.529    core radius for proj-oper                                                   
   RAUG   =    1.300    factor for augmentation sphere                                              
   RDEP   =    1.514    radius for radial grids                                                     
   RDEPT  =    1.338    core radius for aug-charge                                                  
                                                                                                    
   Atomic configuration                                                                             
    4 entries                                                                                       
     n  l   j            E        occ.                                                              
     1  0  0.50      -384.7179   2.0000                                                             
     2  0  0.50       -18.5828   2.0000                                                             
     2  1  0.50        -7.0898   3.0000                                                             
     3  2  1.50        -6.8029   0.0000                                                             
   Description                                                                                      
     l       E           TYP  RCUT    TYP  RCUT                                                     
     0    -18.5828119     23  1.200                                                                 
     0    -13.5018863     23  1.200                                                                 
     1     -7.0897853     23  1.500                                                                 
     1      9.5240782     23  1.500                                                                 
     2     -6.8029130      7  1.500                                                                 
  local pseudopotential read in
  partial core-charges read in
  partial kinetic energy density read in
  atomic valenz-charges read in
  non local Contribution for L=           0  read in
    real space projection operators read in
  non local Contribution for L=           0  read in
    real space projection operators read in
  non local Contribution for L=           1  read in
    real space projection operators read in
  non local Contribution for L=           1  read in
    real space projection operators read in
    PAW grid and wavefunctions read in

   number of l-projection  operators is LMAX  =           4
   number of lm-projection operators is LMMAX =           8

 POTCAR:    PAW_PBE C 08Apr2002                   
   SHA256 =  253f7b50bb8d59471dbedb8285d89021f4a42ed1a2c5d38a03a736e69125dd95 C/POTCAR              
   COPYR  = (c) Copyright 08Apr2002 Georg Kresse                                                    
   COPYR  = This file is part of the software VASP. Any use, copying, and all other rights are regul
   COPYR  = If you do not have a valid VASP license, you may not use, copy or distribute this file. 
   VRHFIN =C: s2p2                                                                                  
   LEXCH  = PE                                                                                      
   EATOM  =   147.1560 eV,   10.8157 Ry                                                             
                                                                                                    
   TITEL  = PAW_PBE C 08Apr2002                                                                     
   LULTRA =        F    use ultrasoft PP ?                                                          
   IUNSCR =        1    unscreen: 0-lin 1-nonlin 2-no                                               
   RPACOR =    1.200    partial core radius                                                         
   POMASS =   12.011; ZVAL   =    4.000    mass and valenz                                          
   RCORE  =    1.500    outmost cutoff radius                                                       
   RWIGS  =    1.630; RWIGS  =    0.863    wigner-seitz radius (au A)                               
   ENMAX  =  400.000; ENMIN  =  300.000 eV                                                          
   ICORE  =        2    local potential                                                             
   LCOR   =        T    correct aug charges                                                         
   LPAW   =        T    paw PP                                                                      
   EAUG   =  644.873                                                                                
   DEXC   =    0.000                                                                                
   RMAX   =    1.529    core radius for proj-oper                                                   
   RAUG   =    1.300    factor for augmentation sphere                                              
   RDEP   =    1.501    radius for radial grids                                                     
   RDEPT  =    1.300    core radius for aug-charge                                                  
                                                                                                    
   Atomic configuration                                                                             
    4 entries                                                                                       
     n  l   j            E        occ.                                                              
     1  0  0.50      -273.3789   2.0000                                                             
     2  0  0.50       -13.7508   2.0000                                                             
     2  1  0.50        -5.2854   2.0000                                                             
     3  2  1.50        -5.4423   0.0000                                                             
   Description                                                                                      
     l       E           TYP  RCUT    TYP  RCUT                                                     
     0    -13.7508458     23  1.200                                                                 
     0     -8.2022199     23  1.200                                                                 
     1     -5.2854383     23  1.500                                                                 
     1     34.0145650     23  1.500                                                                 
     2     -5.4423304      7  1.500                                                                 
  local pseudopotential read in
  partial core-charges read in
  partial kinetic energy density read in
  atomic valenz-charges read in
  non local Contribution for L=           0  read in
    real space projection operators read in
  non local Contribution for L=           0  read in
    real space projection operators read in
  non local Contribution for L=           1  read in
    real space projection operators read in
  non local Contribution for L=           1  read in
    real space projection operators read in
    PAW grid and wavefunctions read in

   number of l-projection  operators is LMAX  =           4
   number of lm-projection operators is LMMAX =           8

 -----------------------------------------------------------------------------
|                                                                             |
|               ----> ADVICE to this user running VASP <----                  |
|                                                                             |
|     You have a (more or less) 'large supercell' and for larger cells it     |
|     might be more efficient to use real-space projection operators.         |
|     Therefore, try LREAL= Auto in the INCAR file.                           |
|     Mind: For very accurate calculation, you might also keep the            |
|     reciprocal projection scheme (i.e. LREAL=.FALSE.).                      |
|                                                                             |
 -----------------------------------------------------------------------------

  PAW_PBE B 06Sep2000                   :
 energy of atom  1       EATOM=  -71.1703
 kinetic energy error for atom=    0.0012 (will be added to EATOM!!)
  PAW_PBE N 08Apr2002                   :
 energy of atom  2       EATOM= -264.5486
 kinetic energy error for atom=    0.0138 (will be added to EATOM!!)
  PAW_PBE C 08Apr2002                   :
 energy of atom  3       EATOM= -147.1560
 kinetic energy error for atom=    0.0076 (will be added to EATOM!!)


 POSCAR: generated by phonopy
  positions in direct lattice
  velocities in cartesian coordinates


 exchange-correlation table for PE
   RHO(1)=    0.500       N(1)  =     2000
   RHO(2)=  100.500       N(2)  =     4000



--------------------------------------------------------------------------------------------------------


 ion  position               nearest neighbor table
   1  0.048  0.095  0.500-  57 1.45  56 1.45  49 1.45
   2  0.189  0.093  0.500-  58 1.44  50 1.45  57 1.45
   3  0.332  0.093  0.500-  58 1.44  51 1.45  59 1.45
   4  0.476  0.095  0.500-  59 1.45  60 1.45  52 1.45
   5  0.619  0.097  0.500-  53 1.45  60 1.45  61 1.46
   6  0.763  0.097  0.500-  54 1.45  62 1.46  61 1.46
   7  0.906  0.097  0.500-  55 1.45  56 1.45  62 1.46
   8  0.050  0.239  0.500-  63 1.45  56 1.45  64 1.46
   9  0.192  0.238  0.500-  65 1.45  64 1.45  57 1.46
  10  0.331  0.234  0.500-  58 1.44  65 1.44  66 1.44
  11  0.474  0.238  0.500-  66 1.45  67 1.45  59 1.46
  12  0.618  0.239  0.500-  68 1.45  60 1.45  67 1.46
  13  0.762  0.239  0.500-  61 1.45  69 1.46  68 1.46
  14  0.906  0.239  0.500-  62 1.45  69 1.46  63 1.46
  15  0.051  0.382  0.500-  63 1.45  70 1.47  71 1.47
  16  0.197  0.381  0.500-  64 1.45  71 1.48  72 1.50
  17  0.345  0.379  0.500-  65 1.46  72 1.51  18 2.07
  18  0.463  0.379  0.500-  66 1.46  73 1.51  17 2.07
  19  0.613  0.381  0.500-  67 1.45  74 1.48  73 1.50
  20  0.760  0.382  0.500-  68 1.45  75 1.47  74 1.47
  21  0.905  0.382  0.500-  69 1.45  75 1.47  70 1.47
  22  0.048  0.523  0.500-  70 1.45  77 1.46  76 1.46
  23  0.193  0.523  0.500-  71 1.45  78 1.46  77 1.46
  24  0.337  0.523  0.500-  72 1.45  79 1.46  78 1.47
  25  0.615  0.523  0.500-  73 1.45  80 1.46  81 1.47
  26  0.759  0.523  0.500-  74 1.45  81 1.46  82 1.46
  27  0.904  0.523  0.500-  75 1.45  82 1.46  76 1.46
  28  0.047  0.666  0.500-  76 1.45  83 1.46  84 1.46
  29  0.191  0.666  0.500-  77 1.45  85 1.45  84 1.46
  30  0.334  0.666  0.500-  86 1.45  85 1.45  78 1.45
  31  0.478  0.670  0.500-  87 1.44  86 1.44  79 1.46
  32  0.620  0.670  0.500-  87 1.44  88 1.44  80 1.46
  33  0.760  0.666  0.500-  88 1.45  89 1.45  81 1.45
  34  0.903  0.666  0.500-  82 1.45  89 1.45  83 1.46
  35  0.047  0.808  0.500-  83 1.45  91 1.45  90 1.45
  36  0.190  0.808  0.500-  84 1.45  91 1.45  92 1.45
  37  0.333  0.809  0.500-  92 1.45  85 1.45  93 1.45
  38  0.477  0.811  0.500-  93 1.45  94 1.45  86 1.46
  39  0.620  0.812  0.500-  94 1.45  95 1.45  87 1.45
  40  0.762  0.811  0.500-  96 1.45  95 1.45  88 1.46
  41  0.904  0.809  0.500-  90 1.45  89 1.45  96 1.45
  42  0.047  0.951  0.500-  50 1.45  90 1.45  49 1.45
  43  0.190  0.951  0.500-  91 1.45  51 1.45  50 1.45
  44  0.333  0.951  0.500-  51 1.45  92 1.45  52 1.45
  45  0.476  0.953  0.500-  52 1.45  53 1.45  93 1.45
  46  0.620  0.954  0.500-  53 1.45  94 1.45  54 1.45
  47  0.763  0.954  0.500-  55 1.45  95 1.45  54 1.45
  48  0.905  0.953  0.500-  49 1.45  55 1.45  96 1.45
  49  0.000  1.000  0.500-  48 1.45  42 1.45   1 1.45
  50  0.142  0.998  0.500-  42 1.45   2 1.45  43 1.45
  51  0.285  0.998  0.500-  44 1.45   3 1.45  43 1.45
  52  0.428  1.000  0.500-  45 1.45  44 1.45   4 1.45
  53  0.572  0.001  0.500-  46 1.45   5 1.45  45 1.45
  54  0.715  0.002  0.500-   6 1.45  47 1.45  46 1.45
  55  0.858  0.001  0.500-  47 1.45   7 1.45  48 1.45
  56  0.001  0.144  0.500-   7 1.45   1 1.45   8 1.45
  57  0.143  0.142  0.500-   1 1.45   2 1.45   9 1.46
  58  0.284  0.140  0.500-  10 1.44   2 1.44   3 1.44
  59  0.427  0.142  0.500-   4 1.45   3 1.45  11 1.46
  60  0.571  0.144  0.500-   5 1.45   4 1.45  12 1.45
  61  0.715  0.144  0.500-  13 1.45   5 1.46   6 1.46
  62  0.858  0.144  0.500-  14 1.45   7 1.46   6 1.46
  63  0.002  0.286  0.500-  15 1.45   8 1.45  14 1.46
  64  0.146  0.286  0.500-   9 1.45  16 1.45   8 1.46
  65  0.287  0.284  0.500-  10 1.44   9 1.45  17 1.46
  66  0.426  0.284  0.500-  10 1.44  11 1.45  18 1.46
  67  0.569  0.286  0.500-  11 1.45  19 1.45  12 1.46
  68  0.713  0.286  0.500-  20 1.45  12 1.45  13 1.46
  69  0.858  0.286  0.500-  21 1.45  13 1.46  14 1.46
  70  0.001  0.428  0.500-  22 1.45  21 1.47  15 1.47
  71  0.147  0.428  0.500-  23 1.45  15 1.47  16 1.48
  72  0.295  0.428  0.500-  24 1.45  16 1.50  17 1.51
  73  0.561  0.428  0.500-  25 1.45  19 1.50  18 1.51
  74  0.710  0.428  0.500-  26 1.45  20 1.47  19 1.48
  75  0.856  0.428  0.500-  27 1.45  21 1.47  20 1.47
  76  0.999  0.570  0.500-  28 1.45  27 1.46  22 1.46
  77  0.144  0.570  0.500-  29 1.45  22 1.46  23 1.46
  78  0.289  0.571  0.500-  30 1.45  23 1.46  24 1.47
  79  0.433  0.574  0.500-  97 1.37  31 1.46  24 1.46
  80  0.569  0.574  0.500-  97 1.37  32 1.46  25 1.46
  81  0.711  0.571  0.500-  33 1.45  26 1.46  25 1.47
  82  0.855  0.570  0.500-  34 1.45  27 1.46  26 1.46
  83  0.999  0.713  0.500-  35 1.45  28 1.46  34 1.46
  84  0.143  0.713  0.500-  36 1.45  28 1.46  29 1.46
  85  0.286  0.713  0.500-  37 1.45  30 1.45  29 1.45
  86  0.430  0.715  0.500-  31 1.44  30 1.45  38 1.46
  87  0.573  0.717  0.500-  31 1.44  32 1.44  39 1.45
  88  0.714  0.715  0.500-  32 1.44  33 1.45  40 1.46
  89  0.856  0.713  0.500-  41 1.45  33 1.45  34 1.45
  90  0.999  0.856  0.500-  41 1.45  42 1.45  35 1.45
  91  0.142  0.855  0.500-  43 1.45  36 1.45  35 1.45
  92  0.285  0.856  0.500-  37 1.45  44 1.45  36 1.45
  93  0.429  0.857  0.500-  38 1.45  45 1.45  37 1.45
  94  0.572  0.859  0.500-  39 1.45  46 1.45  38 1.45
  95  0.715  0.859  0.500-  39 1.45  47 1.45  40 1.45
  96  0.857  0.857  0.500-  40 1.45  48 1.45  41 1.45
  97  0.479  0.530  0.500-  79 1.37  80 1.37


IMPORTANT INFORMATION: All symmetrisations will be switched off!
NOSYMM: (Re-)initialisation of all symmetry stuff for point group C_1.


----------------------------------------------------------------------------------------

                                     Primitive cell                                     

  volume of cell :    4026.1871

  direct lattice vectors                    reciprocal lattice vectors
    17.605000000  0.000000000  0.000000000     0.056802045  0.032794676 -0.000000000
    -8.802500000 15.246377237  0.000000000     0.000000000  0.065589352  0.000000000
     0.000000000  0.000000000 15.000000000     0.000000000 -0.000000000  0.066666667

  length of vectors
    17.605000000 17.605000003 15.000000000     0.065589352  0.065589352  0.066666667

  position of ions in fractional coordinates (direct lattice)
     0.048147836  0.095172013  0.499999997
     0.189321056  0.093077029  0.500000011
     0.332325753  0.093077770  0.500000020
     0.475594522  0.095173576  0.500000016
     0.619110321  0.096503587  0.500000013
     0.762699239  0.096827036  0.500000008
     0.905964040  0.096504088  0.499999994
     0.049830187  0.239090511  0.499999993
     0.191994055  0.237631794  0.499999971
     0.331192912  0.233817431  0.499999984
     0.474207972  0.237633883  0.500000002
     0.617830273  0.239091515  0.499999996
     0.761891275  0.239330981  0.500000001
     0.906009807  0.239330864  0.500000006
     0.050543654  0.381530718  0.499999997
     0.196992596  0.381413405  0.500000023
     0.344961329  0.378914484  0.500000009
     0.462521954  0.378914432  0.499999978
     0.612993491  0.381415460  0.499999970
     0.759560674  0.381530888  0.500000002
     0.905056742  0.381539894  0.500000000
     0.048335734  0.523425601  0.499999999
     0.193021090  0.523440195  0.500000026
     0.337162547  0.523088944  0.500000055
     0.614500196  0.523088639  0.499999978
     0.758993830  0.523441401  0.499999996
     0.903663045  0.523425984  0.499999996
     0.047055740  0.665540347  0.499999986
     0.190842519  0.665653984  0.499999997
     0.334338225  0.666088540  0.500000012
     0.478495607  0.669597901  0.500000005
     0.619678012  0.669599927  0.500000005
     0.760324283  0.666089521  0.500000005
     0.903384333  0.665655325  0.499999995
     0.046669406  0.808088623  0.500000002
     0.189989625  0.808088476  0.499999974
     0.333441330  0.808755424  0.499999974
     0.476927699  0.810577556  0.499999988
     0.620392566  0.812214330  0.499999990
     0.762222112  0.810580019  0.499999992
     0.903883890  0.808755201  0.500000010
     0.046793576  0.951119858  0.500000020
     0.189575902  0.950580260  0.500000013
     0.332897536  0.951121063  0.499999992
     0.476318355  0.952794074  0.500000001
     0.619762245  0.954132324  0.500000002
     0.762940637  0.954133342  0.499999987
     0.905045648  0.952794583  0.499999995
     0.000070885  0.999759468  0.500000008
     0.141776282  0.998040423  0.500000032
     0.284835252  0.998040711  0.500000015
     0.428260350  0.999760974  0.500000013
     0.571692137  0.001175635  0.500000016
     0.715078091  0.001585311  0.499999999
     0.858052847  0.001176721  0.499999983
     0.001308077  0.143682916  0.499999991
     0.143177693  0.142079564  0.499999990
     0.284048346  0.139528485  0.500000013
     0.427472935  0.142081948  0.500000021
     0.570945163  0.143682689  0.500000009
     0.714544878  0.144120897  0.500000015
     0.858147061  0.144120483  0.500000006
     0.001777688  0.286438579  0.500000005
     0.145647696  0.286259654  0.499999981
     0.286950731  0.283888183  0.499999951
     0.425505878  0.283887543  0.499999991
     0.569183630  0.286262532  0.499999988
     0.713231419  0.286438485  0.499999991
     0.857519551  0.286469395  0.500000004
     0.001192661  0.428394293  0.499999992
     0.147075928  0.428353097  0.500000014
     0.295227010  0.428128448  0.500000081
     0.561469983  0.428126968  0.499999932
     0.709851867  0.428353655  0.499999997
     0.855776457  0.428394382  0.500000012
     0.999493515  0.570414868  0.499999989
     0.144059280  0.570483265  0.500000013
     0.288622925  0.570703533  0.500000044
     0.433082386  0.573823577  0.500000028
     0.569318505  0.573825701  0.500000005
     0.710654427  0.570704124  0.500000002
     0.854999257  0.570485981  0.499999990
     0.998901348  0.712884882  0.499999990
     0.142555077  0.712884234  0.499999975
     0.286239789  0.713379215  0.499999995
     0.429599149  0.715138137  0.499999996
     0.572920066  0.717266483  0.499999999
     0.714115102  0.715140930  0.500000005
     0.855713080  0.713380427  0.500000008
     0.999049428  0.855867683  0.500000020
     0.141991917  0.855412215  0.499999994
     0.285387388  0.855868450  0.499999954
     0.428830883  0.857406185  0.499999978
     0.572194335  0.858913022  0.499999992
     0.715290011  0.858914380  0.499999978
     0.857146350  0.857406813  0.499999998
     0.479371813  0.530166888  0.500000016

  ion indices of the primitive-cell ions
   primitive index   ion index
                 1           1
                 2           2
                 3           3
                 4           4
                 5           5
                 6           6
                 7           7
                 8           8
                 9           9
                10          10
                11          11
                12          12
                13          13
                14          14
                15          15
                16          16
                17          17
                18          18
                19          19
                20          20
                21          21
                22          22
                23          23
                24          24
                25          25
                26          26
                27          27
                28          28
                29          29
                30          30
                31          31
                32          32
                33          33
                34          34
                35          35
                36          36
                37          37
                38          38
                39          39
                40          40
                41          41
                42          42
                43          43
                44          44
                45          45
                46          46
                47          47
                48          48
                49          49
                50          50
                51          51
                52          52
                53          53
                54          54
                55          55
                56          56
                57          57
                58          58
                59          59
                60          60
                61          61
                62          62
                63          63
                64          64
                65          65
                66          66
                67          67
                68          68
                69          69
                70          70
                71          71
                72          72
                73          73
                74          74
                75          75
                76          76
                77          77
                78          78
                79          79
                80          80
                81          81
                82          82
                83          83
                84          84
                85          85
                86          86
                87          87
                88          88
                89          89
                90          90
                91          91
                92          92
                93          93
                94          94
                95          95
                96          96
                97          97

----------------------------------------------------------------------------------------



 KPOINTS: scf                                     

Automatic generation of k-mesh.
 Grid dimensions read from file:
 generate k-points for:    3    3    1

 Generating k-lattice:

  Cartesian coordinates                     Fractional coordinates (reciprocal lattice)
     0.018934015  0.010931559 -0.000000000     0.333333333 -0.000000000  0.000000000
     0.000000000  0.021863117  0.000000000     0.000000000  0.333333333  0.000000000
     0.000000000 -0.000000000  0.066666667     0.000000000  0.000000000  1.000000000

  Length of vectors
     0.021863117  0.021863117  0.066666667

  Shift w.r.t. Gamma in fractional coordinates (k-lattice)
     0.000000000  0.000000000  0.000000000

 
 Subroutine IBZKPT returns following result:
 ===========================================
 
 Found      5 irreducible k-points:
 
 Following reciprocal coordinates:
            Coordinates               Weight
  0.000000  0.000000  0.000000      1.000000
  0.333333  0.000000  0.000000      2.000000
  0.000000  0.333333  0.000000      2.000000
 -0.333333  0.333333  0.000000      2.000000
  0.333333  0.333333  0.000000      2.000000
 
 Following cartesian coordinates:
            Coordinates               Weight
  0.000000  0.000000  0.000000      1.000000
  0.018934  0.010932  0.000000      2.000000
  0.000000  0.021863  0.000000      2.000000
 -0.018934  0.010932  0.000000      2.000000
  0.018934  0.032795  0.000000      2.000000
 


--------------------------------------------------------------------------------------------------------




 Dimension of arrays:
   k-points           NKPTS =      5   k-points in BZ     NKDIM =      5   number of bands    NBANDS=    256
   number of dos      NEDOS =    301   number of ions     NIONS =     97
   non local maximal  LDIM  =      4   non local SUM 2l+1 LMDIM =      8
   total plane-waves  NPLWV = 774144
   max r-space proj   IRMAX =      1   max aug-charges    IRDMAX=   3198
   dimension x,y,z NGX =    96 NGY =   96 NGZ =   84
   dimension x,y,z NGXF=   192 NGYF=  192 NGZF=  168
   support grid    NGXF=   192 NGYF=  192 NGZF=  168
   ions per type =              48  48   1
   NGX,Y,Z   is equivalent  to a cutoff of   9.07,  9.07,  9.31 a.u.
   NGXF,Y,Z  is equivalent  to a cutoff of  18.13, 18.13, 18.62 a.u.

 SYSTEM =  unknown system                          
 POSCAR =  generated by phonopy                    

 Startparameter for this run:
   NWRITE =      2    write-flag & timer
   PREC   = normal    normal or accurate (medium, high low for compatibility)
   ISTART =      0    job   : 0-new  1-cont  2-samecut
   ICHARG =      2    charge: 1-file 2-atom 10-const
   ISPIN  =      2    spin polarized calculation?
   LNONCOLLINEAR =      F non collinear calculations
   LSORBIT =      F    spin-orbit coupling
   INIWAV =      1    electr: 0-lowe 1-rand  2-diag
   LASPH  =      F    aspherical Exc in radial PAW
 Electronic Relaxation 1
   ENCUT  =  500.0 eV  36.75 Ry    6.06 a.u.  32.10 32.10 27.35*2*pi/ulx,y,z
   ENINI  =  500.0     initial cutoff
   ENAUG  =  644.9 eV  augmentation charge cutoff
   NELM   =     60;   NELMIN=  2; NELMDL=-12     # of ELM steps 
   EDIFF  = 0.1E-05   stopping-criterion for ELM
   LREAL  =      F    real-space projection
   NLSPLINE    = F    spline interpolate recip. space projectors
   LCOMPAT=      F    compatible to vasp.4.4
   GGA_COMPAT  = T    GGA compatible to vasp.4.4-vasp.4.6
   LMAXPAW     = -100 max onsite density
   LMAXMIX     =    2 max onsite mixed and CHGCAR
   VOSKOWN=      0    Vosko Wilk Nusair interpolation
   ROPT   =    0.00000   0.00000   0.00000
 Ionic relaxation
   EDIFFG = 0.1E-04   stopping-criterion for IOM
   NSW    =      0    number of steps for IOM
   NBLOCK =      1;   KBLOCK =      1    inner block; outer block 
   IBRION =     -1    ionic relax: 0-MD 1-quasi-New 2-CG
   NFREE  =      0    steps in history (QN), initial steepest desc. (CG)
   ISIF   =      2    stress and relaxation
   IWAVPR =     10    prediction:  0-non 1-charg 2-wave 3-comb
   ISYM   =      0    0-nonsym 1-usesym 2-fastsym
   LCORR  =      T    Harris-Foulkes like correction to forces

   POTIM  = 0.5000    time-step for ionic-motion
   TEIN   =    0.0    initial temperature
   TEBEG  =    0.0;   TEEND  =   0.0 temperature during run
   SMASS  =  -3.00    Nose mass-parameter (am)
   estimated Nose-frequenzy (Omega)   =  0.10E-29 period in steps = 0.13E+47 mass=  -0.708E-26a.u.
   SCALEE = 1.0000    scale energy and forces
   NPACO  =    256;   APACO  = 10.0  distance and # of slots for P.C.
   PSTRESS=    0.0 pullay stress

  Mass of Ions in am
   POMASS =  10.81 14.00 12.01
  Ionic Valenz
   ZVAL   =   3.00  5.00  4.00
  Atomic Wigner-Seitz radii
   RWIGS  =  -1.00 -1.00 -1.00
  virtual crystal weights 
   VCA    =   1.00  1.00  1.00
   NELECT =     388.0000    total number of electrons
   NUPDOWN=       2.0000    fix difference up-down

 DOS related values:
   EMIN   =  10.00;   EMAX   =-10.00  energy-range for DOS
   EFERMI =   0.00;   METHOD = LEGACY      
   ISMEAR =    -2;   SIGMA  =   0.00  broadening in eV -4-tet -1-fermi 0-gaus

 Electronic relaxation 2 (details)
   IALGO  =     48    algorithm
   LDIAG  =      F    sub-space diagonalisation (order eigenvalues)
   LSUBROT=      F    optimize rotation matrix (better conditioning)
   TURBO    =      0    0=normal 1=particle mesh
   IRESTART =      0    0=no restart 2=restart with 2 vectors
   NREBOOT  =      0    no. of reboots
   NMIN     =      0    reboot dimension
   EREF     =   0.00    reference energy to select bands
   IMIX   =      4    mixing-type and parameters
     AMIX     =   0.40;   BMIX     =  1.00
     AMIX_MAG =   1.60;   BMIX_MAG =  1.00
     AMIN     =   0.10
     WC   =   100.;   INIMIX=   1;  MIXPRE=   1;  MAXMIX= -45

 Intra band minimization:
   WEIMIN = 0.0000     energy-eigenvalue tresh-hold
   EBREAK =  0.98E-09  absolut break condition
   DEPER  =   0.30     relativ break condition  

   TIME   =   0.40     timestep for ELM

  volume/ion in A,a.u.               =      41.51       280.10
  Fermi-wavevector in a.u.,A,eV,Ry     =   0.750563  1.418359  7.664781  0.563346
  Thomas-Fermi vector in A             =   1.847343

 Write flags
   LWAVE        =      F    write WAVECAR
   LDOWNSAMPLE  =      F    k-point downsampling of WAVECAR
   LCHARG       =      T    write CHGCAR
   LVTOT        =      F    write LOCPOT, total local potential
   LVHAR        =      F    write LOCPOT, Hartree potential only
   WRT_POTENTIAL= false  ! write potential to hdf5 file
   LELF         =      F    write electronic localiz. function (ELF)
   LORBIT       =     11    0 simple, 1 ext, 2 COOP (PROOUT), +10 PAW based schemes


 Dipole corrections
   LMONO      =      F    monopole corrections only (constant potential shift)
   LDIPOL     =      F    correct potential (dipole corrections)
   IDIPOL     =      0    1-x, 2-y, 3-z, 4-all directions 
   EPSILON    =  1.0000000 bulk dielectric constant
   LVACPOTAV  =      F  vacuum potentials using an averaging scheme for the charge density
   VACPOTFLAT =  0.1000000 required flatness to determine vacuum potential
 Exchange correlation treatment:
   GGA     = PE    functional components
   XC_C    = 1    coefficients multiplying the functional components
   LIBXC   =     F    Libxc                    
   VOSKOWN =     0    Vosko Wilk Nusair interpolation
   LHFCALC =     F    Hartree Fock is set to
   LHFONE  =     F    Hartree Fock one center treatment
   AEXX    =    0.0000 exact exchange contribution

 Parameters of functionals:
   PE:
     No parameter

 Van der Waals corrections
   IVDW    =     0    specifies the selected vdW correction

 Linear response parameters
   LEPSILON=     F    determine dielectric tensor
   LRPA    =     F    only Hartree local field effects (RPA)
   LNABLA  =     F    use nabla operator in PAW spheres
   LVEL    =     F    velocity operator in full k-point grid
   CSHIFT  =0.1000    complex shift for real part using Kramers Kronig
   OMEGAMAX=  -1.0    maximum frequency
   DEG_THRESHOLD= 0.2000000E-02 threshold for treating states as degnerate
   RTIME   =   -0.100 relaxation time in fs
  (WPLASMAI=    0.000 imaginary part of plasma frequency in eV, 0.658/RTIME)
   DFIELD  = 0.0000000 0.0000000 0.0000000 field for delta impulse in time

  Optional k-point grid parameters
   LKPOINTS_OPT  =     F    use optional k-point grid
   KPOINTS_OPT_MODE=     1    mode for optional k-point grid

 Orbital magnetization related:
   ORBITALMAG=     F  switch on orbital magnetization
   LCHIMAG   =     F  perturbation theory with respect to B field
   DQ        =  0.001000  dq finite difference perturbation B field
   LLRAUG    =     F  two centre corrections for induced B field
   LBONE     =     F  B-component reconstruction in AE one-centre
   LVGVCALC  =     T  calculate vGv susceptibility
   LVGVAPPL  =     F  apply vGv susceptibility instead of pGv for G=0

 Random number generation:
   RANDOM_GENERATOR = DEFAULT
   PCG_SEED         = not used


--------------------------------------------------------------------------------------------------------


 Static calculation
 charge density and potential will be updated during run
 spin polarized calculation
 RMM-DIIS sequential band-by-band
 perform Loewdin sub-space diagonalisation
    ordering is kept fixed
    before iterative eigenvector-optimisation
 modified Broyden-mixing scheme, WC =      100.0
 initial mixing is a Kerker type mixing with AMIX =  0.4000 and BMIX =      1.0000
 Hartree-type preconditioning will be used
 using additional bands           62
 WARNING: no broadening specified (might cause bad convergence)
 reciprocal scheme for non local part
 use partial core corrections
 calculate Harris-corrections to forces   (improved forces if not selfconsistent)
 use gradient corrections 
 use of overlap-Matrix (Vanderbilt PP)
 partial occupancies read from INCAR or WAVECAR (fixed during run)


--------------------------------------------------------------------------------------------------------


  energy-cutoff  :      500.00
  volume of cell :     4026.19
      direct lattice vectors                 reciprocal lattice vectors
    17.605000000  0.000000000  0.000000000     0.056802045  0.032794676 -0.000000000
    -8.802500000 15.246377237  0.000000000     0.000000000  0.065589352  0.000000000
     0.000000000  0.000000000 15.000000000     0.000000000 -0.000000000  0.066666667

  length of vectors
    17.605000000 17.605000003 15.000000000     0.065589352  0.065589352  0.066666667



 k-points in units of 2pi/SCALE and weight: scf                                     
   0.00000000  0.00000000  0.00000000       0.111
   0.01893401  0.01093156  0.00000000       0.222
   0.00000000  0.02186312  0.00000000       0.222
  -0.01893401  0.01093156  0.00000000       0.222
   0.01893401  0.03279468  0.00000000       0.222

 k-points in reciprocal lattice and weights: scf                                     
   0.00000000  0.00000000  0.00000000       0.111
   0.33333333  0.00000000  0.00000000       0.222
   0.00000000  0.33333333  0.00000000       0.222
  -0.33333333  0.33333333  0.00000000       0.222
   0.33333333  0.33333333  0.00000000       0.222

 position of ions in fractional coordinates (direct lattice) 
   0.04814784  0.09517201  0.50000000
   0.18932106  0.09307703  0.50000001
   0.33232575  0.09307777  0.50000002
   0.47559452  0.09517358  0.50000002
   0.61911032  0.09650359  0.50000001
   0.76269924  0.09682704  0.50000001
   0.90596404  0.09650409  0.49999999
   0.04983019  0.23909051  0.49999999
   0.19199405  0.23763179  0.49999997
   0.33119291  0.23381743  0.49999998
   0.47420797  0.23763388  0.50000000
   0.61783027  0.23909152  0.50000000
   0.76189128  0.23933098  0.50000000
   0.90600981  0.23933086  0.50000001
   0.05054365  0.38153072  0.50000000
   0.19699260  0.38141341  0.50000002
   0.34496133  0.37891448  0.50000001
   0.46252195  0.37891443  0.49999998
   0.61299349  0.38141546  0.49999997
   0.75956067  0.38153089  0.50000000
   0.90505674  0.38153989  0.50000000
   0.04833573  0.52342560  0.50000000
   0.19302109  0.52344019  0.50000003
   0.33716255  0.52308894  0.50000006
   0.61450020  0.52308864  0.49999998
   0.75899383  0.52344140  0.50000000
   0.90366305  0.52342598  0.50000000
   0.04705574  0.66554035  0.49999999
   0.19084252  0.66565398  0.50000000
   0.33433823  0.66608854  0.50000001
   0.47849561  0.66959790  0.50000000
   0.61967801  0.66959993  0.50000001
   0.76032428  0.66608952  0.50000000
   0.90338433  0.66565533  0.49999999
   0.04666941  0.80808862  0.50000000
   0.18998962  0.80808848  0.49999997
   0.33344133  0.80875542  0.49999997
   0.47692770  0.81057756  0.49999999
   0.62039257  0.81221433  0.49999999
   0.76222211  0.81058002  0.49999999
   0.90388389  0.80875520  0.50000001
   0.04679358  0.95111986  0.50000002
   0.18957590  0.95058026  0.50000001
   0.33289754  0.95112106  0.49999999
   0.47631835  0.95279407  0.50000000
   0.61976225  0.95413232  0.50000000
   0.76294064  0.95413334  0.49999999
   0.90504565  0.95279458  0.50000000
   0.00007088  0.99975947  0.50000001
   0.14177628  0.99804042  0.50000003
   0.28483525  0.99804071  0.50000001
   0.42826035  0.99976097  0.50000001
   0.57169214  0.00117564  0.50000002
   0.71507809  0.00158531  0.50000000
   0.85805285  0.00117672  0.49999998
   0.00130808  0.14368292  0.49999999
   0.14317769  0.14207956  0.49999999
   0.28404835  0.13952848  0.50000001
   0.42747293  0.14208195  0.50000002
   0.57094516  0.14368269  0.50000001
   0.71454488  0.14412090  0.50000001
   0.85814706  0.14412048  0.50000001
   0.00177769  0.28643858  0.50000000
   0.14564770  0.28625965  0.49999998
   0.28695073  0.28388818  0.49999995
   0.42550588  0.28388754  0.49999999
   0.56918363  0.28626253  0.49999999
   0.71323142  0.28643848  0.49999999
   0.85751955  0.28646940  0.50000000
   0.00119266  0.42839429  0.49999999
   0.14707593  0.42835310  0.50000001
   0.29522701  0.42812845  0.50000008
   0.56146998  0.42812697  0.49999993
   0.70985187  0.42835365  0.50000000
   0.85577646  0.42839438  0.50000001
   0.99949351  0.57041487  0.49999999
   0.14405928  0.57048326  0.50000001
   0.28862292  0.57070353  0.50000004
   0.43308239  0.57382358  0.50000003
   0.56931850  0.57382570  0.50000000
   0.71065443  0.57070412  0.50000000
   0.85499926  0.57048598  0.49999999
   0.99890135  0.71288488  0.49999999
   0.14255508  0.71288423  0.49999997
   0.28623979  0.71337921  0.50000000
   0.42959915  0.71513814  0.50000000
   0.57292007  0.71726648  0.50000000
   0.71411510  0.71514093  0.50000000
   0.85571308  0.71338043  0.50000001
   0.99904943  0.85586768  0.50000002
   0.14199192  0.85541222  0.49999999
   0.28538739  0.85586845  0.49999995
   0.42883088  0.85740618  0.49999998
   0.57219433  0.85891302  0.49999999
   0.71529001  0.85891438  0.49999998
   0.85714635  0.85740681  0.50000000
   0.47937181  0.53016689  0.50000002

 position of ions in cartesian coordinates  (Angst):
   0.00989100  1.45102842  7.49999995
   2.51368665  1.41908750  7.50000016
   5.03127781  1.41909880  7.50000030
   7.53507616  1.45105224  7.50000024
  10.04996438  1.47133009  7.50000020
  12.57500012  1.47626152  7.50000012
  15.10001969  1.47133773  7.49999992
  -1.22733378  3.64526412  7.49999990
   1.28830146  3.62302398  7.49999957
   3.77247327  3.56486875  7.49999977
   6.25665909  3.62305582  7.50000002
   8.77229889  3.64527944  7.49999994
  11.30638494  3.64893042  7.50000001
  13.84359273  3.64892863  7.50000010
  -2.46860312  5.81696125  7.49999996
   0.11066316  5.81517266  7.50000034
   2.73764946  5.77707316  7.50000013
   4.80730471  5.77707237  7.49999967
   7.43434082  5.81520399  7.49999955
  10.01364003  5.81696384  7.50000003
  12.57501903  5.81710116  7.50000001
  -3.75650326  7.98034417  7.49999999
  -1.20944603  7.98056667  7.50000039
   1.33125622  7.97521137  7.50000083
   6.21378821  7.97520672  7.49999967
   8.75449344  7.98058507  7.49999994
  11.30153069  7.98035001  7.49999994
  -5.03000261 10.14707920  7.49999978
  -2.49963665 10.14881176  7.49999995
   0.02278009 10.15543715  7.50000018
   2.52977963 10.20894220  7.50000007
   5.01527805 10.20897309  7.50000008
   7.52225600 10.15545211  7.50000007
  10.04465018 10.14883220  7.49999992
  -6.29158520 12.32042398  7.50000002
  -3.76843147 12.32042175  7.49999960
  -1.24883500 12.33059028  7.49999961
   1.26120321 12.35837120  7.49999982
   3.77249449 12.38332607  7.49999985
   6.28378967 12.35840875  7.49999988
   8.79380822 12.33058689  7.50000014
  -7.54843165 14.50113215  7.50000030
  -5.02999898 14.49290524  7.50000020
  -2.51158204 14.50115052  7.49999988
  -0.00138520 14.52665789  7.50000001
   2.51216455 14.54706134  7.50000002
   5.03281118 14.54707687  7.49999980
   7.54635431 14.52666564  7.49999993
  -8.79913479 15.24270999  7.50000011
  -6.28927939 15.21650079  7.50000048
  -3.77072875 15.21650519  7.50000022
  -1.26087250 15.24273295  7.50000019
  10.05429155  0.01792418  7.50000024
  12.57499510  0.02417025  7.49999998
  15.09566228  0.01794073  7.49999974
  -1.24174016  2.19064393  7.49999987
   1.26998792  2.16619863  7.49999984
   3.77247165  2.12730391  7.50000020
   6.27498467  2.16623497  7.50000032
   8.78672272  2.19064048  7.50000014
  11.31093838  2.19732156  7.50000022
  13.83905846  2.19731525  7.50000009
  -2.49007940  4.36715063  7.50000007
   0.04432709  4.36442267  7.49999971
   2.55284188  4.32826633  7.49999926
   4.99211088  4.32825658  7.49999986
   7.50065188  4.36446654  7.49999982
  10.03506436  4.36714920  7.49999986
  12.57498485  4.36762047  7.50000006
  -3.74994397  6.53146100  7.49999988
  -1.18130643  6.53083291  7.50000021
   1.42887085  6.52740782  7.50000122
   6.11609142  6.52738526  7.49999898
   8.72635908  6.53084141  7.49999995
  11.29500299  6.53146235  7.50000018
  12.57500645  8.69676026  7.49999984
  -2.48551531  8.69780306  7.50000019
   0.05758874  8.70116135  7.50000065
   2.57333336  8.74873072  7.50000041
   4.97175155  8.74876310  7.50000007
   7.48744813  8.70117037  7.50000003
  10.03055907  8.69784448  7.49999985
  11.31048906 10.86891183  7.49999986
  -3.76548134 10.86890196  7.49999962
  -1.24026905 10.87644862  7.49999993
   1.26808956 10.90326581  7.49999993
   3.77251955 10.93571538  7.49999998
   6.27696833 10.90330840  7.50000007
   8.78529757 10.87646710  7.50000012
  10.05448990 13.04888157  7.50000031
  -5.02999833 13.04193733  7.49999990
  -2.50953706 13.04889326  7.49999931
   0.00224976 13.07233814  7.49999967
   2.51289938 13.09531195  7.49999988
   5.03208680 13.09533266  7.49999967
   7.54273802 13.07234771  7.49999997
   3.77254673  8.08312438  7.50000024



--------------------------------------------------------------------------------------------------------


 k-point     1 :   0.0000 0.0000 0.0000  plane waves:  102109
 k-point     2 :   0.3333 0.0000 0.0000  plane waves:  102240
 k-point     3 :   0.0000 0.3333 0.0000  plane waves:  102240
 k-point     4 :  -0.3333 0.3333 0.0000  plane waves:  102240
 k-point     5 :   0.3333 0.3333 0.0000  plane waves:  102270

 maximum and minimum number of plane-waves per node :     25593    25490

 maximum number of plane-waves:    102270
 maximum index in each direction: 
   IXMAX=   32   IYMAX=   32   IZMAX=   27
   IXMIN=  -32   IYMIN=  -32   IZMIN=  -27


 parallel 3D FFT for wavefunctions:
    minimum data exchange during FFTs selected (reduces bandwidth)
 parallel 3D FFT for charge:
    minimum data exchange during FFTs selected (reduces bandwidth)


 total amount of memory used by VASP MPI-rank0   193968. kBytes
=======================================================================

   base      :      30000. kBytes
   nonl-proj :      64307. kBytes
   fftplans  :       9285. kBytes
   grid      :      24155. kBytes
   one-center:        153. kBytes
   wavefun   :      66068. kBytes

     INWAV:  cpu time      0.0010: real time      0.0013
 Broyden mixing: mesh for mixing (old mesh)
   NGX = 65   NGY = 65   NGZ = 55
  (NGX  =192   NGY  =192   NGZ  =168)
  gives a total of 232375 points

 initial charge density was supplied:
 charge density of overlapping atoms calculated
 number of electron     388.0000000 magnetization       2.0000000
 keeping initial charge density in first step


--------------------------------------------------------------------------------------------------------


 Maximum index for augmentation-charges          229 (set IRDMAX)


--------------------------------------------------------------------------------------------------------


 First call to EWALD:  gamma=   0.111
 Maximum number of real-space cells 3x 3x 3
 Maximum number of reciprocal cells 3x 3x 3

    FEWALD:  cpu time      0.0045: real time      0.0045


--------------------------------------- Ionic step        1  -------------------------------------------




--------------------------------------- Iteration      1(   1)  ---------------------------------------


    POTLOK:  cpu time      0.1708: real time      0.1711
    SETDIJ:  cpu time      0.0100: real time      0.0100
    EDDIAG:  cpu time      4.4394: real time      4.4707
  RMM-DIIS:  cpu time     13.9982: real time     14.0106
    ORTHCH:  cpu time      0.7027: real time      0.7034
       DOS:  cpu time      0.0012: real time      0.0012
    --------------------------------------------
      LOOP:  cpu time     19.3224: real time     19.3671

 eigenvalue-minimisations  :  2560
 total energy-change (2. order) : 0.6143843E+04  (-0.1042536E+05)
 number of electron     388.0000000 magnetization       2.0000000
 augmentation part      388.0000000 magnetization       2.0000000

 Free energy of the ion-electron system (eV)
  ---------------------------------------------------
  alpha Z        PSCENC =       207.73511157
  Ewald energy   TEWEN  =     37352.32367648
  -Hartree energ DENC   =    -49805.55147993
  -exchange      EXHF   =         0.00000000
  -V(xc)+E(xc)   XCENC  =      1301.95220673
  PAW double counting   =     12033.28159698   -12049.96224526
  entropy T*S    EENTRO =         0.00000000
  eigenvalues    EBANDS =       843.12560727
  atomic energy  EATOM  =     16260.93880140
  Solvation  Ediel_sol  =         0.00000000
  ---------------------------------------------------
  free energy    TOTEN  =      6143.84327523 eV

  energy without entropy =     6143.84327523  energy(sigma->0) =     6143.84327523


--------------------------------------------------------------------------------------------------------




--------------------------------------- Iteration      1(   2)  ---------------------------------------


    EDDIAG:  cpu time      4.4289: real time      4.4368
  RMM-DIIS:  cpu time     14.0283: real time     14.0432
    ORTHCH:  cpu time      0.6900: real time      0.6903
       DOS:  cpu time      0.0004: real time      0.0004
    --------------------------------------------
      LOOP:  cpu time     19.1476: real time     19.1707

 eigenvalue-minimisations  :  2560
 total energy-change (2. order) :-0.3699637E+04  (-0.4289902E+04)
 number of electron     388.0000000 magnetization       2.0000000
 augmentation part      388.0000000 magnetization       2.0000000

 Free energy of the ion-electron system (eV)
  ---------------------------------------------------
  alpha Z        PSCENC =       207.73511157
  Ewald energy   TEWEN  =     37352.32367648
  -Hartree energ DENC   =    -49805.55147993
  -exchange      EXHF   =         0.00000000
  -V(xc)+E(xc)   XCENC  =      1301.95220673
  PAW double counting   =     12033.28159698   -12049.96224526
  entropy T*S    EENTRO =         0.00000000
  eigenvalues    EBANDS =     -2856.51124550
  atomic energy  EATOM  =     16260.93880140
  Solvation  Ediel_sol  =         0.00000000
  ---------------------------------------------------
  free energy    TOTEN  =      2444.20642246 eV

  energy without entropy =     2444.20642246  energy(sigma->0) =     2444.20642246


--------------------------------------------------------------------------------------------------------




--------------------------------------- Iteration      1(   3)  ---------------------------------------


    EDDIAG:  cpu time      4.4172: real time      4.4363
  RMM-DIIS:  cpu time     14.1561: real time     14.1675
    ORTHCH:  cpu time      0.6892: real time      0.6900
       DOS:  cpu time      0.0007: real time      0.0007
    --------------------------------------------
      LOOP:  cpu time     19.2632: real time     19.2944

 eigenvalue-minimisations  :  2560
 total energy-change (2. order) :-0.1203064E+04  (-0.2092910E+04)
 number of electron     388.0000000 magnetization       2.0000000
 augmentation part      388.0000000 magnetization       2.0000000

 Free energy of the ion-electron system (eV)
  ---------------------------------------------------
  alpha Z        PSCENC =       207.73511157
  Ewald energy   TEWEN  =     37352.32367648
  -Hartree energ DENC   =    -49805.55147993
  -exchange      EXHF   =         0.00000000
  -V(xc)+E(xc)   XCENC  =      1301.95220673
  PAW double counting   =     12033.28159698   -12049.96224526
  entropy T*S    EENTRO =         0.00000000
  eigenvalues    EBANDS =     -4059.57540784
  atomic energy  EATOM  =     16260.93880140
  Solvation  Ediel_sol  =         0.00000000
  ---------------------------------------------------
  free energy    TOTEN  =      1241.14226012 eV

  energy without entropy =     1241.14226012  energy(sigma->0) =     1241.14226012


--------------------------------------------------------------------------------------------------------




--------------------------------------- Iteration      1(   4)  ---------------------------------------


    EDDIAG:  cpu time      4.4305: real time      4.4360
  RMM-DIIS:  cpu time     13.9485: real time     13.9634
    ORTHCH:  cpu time      0.6943: real time      0.6948
       DOS:  cpu time      0.0009: real time      0.0009
    --------------------------------------------
      LOOP:  cpu time     19.0742: real time     19.0952

 eigenvalue-minimisations  :  2560
 total energy-change (2. order) :-0.1209246E+04  (-0.1189870E+04)
 number of electron     388.0000000 magnetization       2.0000000
 augmentation part      388.0000000 magnetization       2.0000000

 Free energy of the ion-electron system (eV)
  ---------------------------------------------------
  alpha Z        PSCENC =       207.73511157
  Ewald energy   TEWEN  =     37352.32367648
  -Hartree energ DENC   =    -49805.55147993
  -exchange      EXHF   =         0.00000000
  -V(xc)+E(xc)   XCENC  =      1301.95220673
  PAW double counting   =     12033.28159698   -12049.96224526
  entropy T*S    EENTRO =         0.00000000
  eigenvalues    EBANDS =     -5268.82131583
  atomic energy  EATOM  =     16260.93880140
  Solvation  Ediel_sol  =         0.00000000
  ---------------------------------------------------
  free energy    TOTEN  =        31.89635212 eV

  energy without entropy =       31.89635212  energy(sigma->0) =       31.89635212


--------------------------------------------------------------------------------------------------------




--------------------------------------- Iteration      1(   5)  ---------------------------------------


    EDDIAG:  cpu time      4.4225: real time      4.4389
  RMM-DIIS:  cpu time     14.0125: real time     14.0261
    ORTHCH:  cpu time      0.6908: real time      0.6916
       DOS:  cpu time      0.0004: real time      0.0004
    --------------------------------------------
      LOOP:  cpu time     19.1262: real time     19.1570

 eigenvalue-minimisations  :  2560
 total energy-change (2. order) :-0.5862237E+03  (-0.5270704E+03)
 number of electron     388.0000000 magnetization       2.0000000
 augmentation part      388.0000000 magnetization       2.0000000

 Free energy of the ion-electron system (eV)
  ---------------------------------------------------
  alpha Z        PSCENC =       207.73511157
  Ewald energy   TEWEN  =     37352.32367648
  -Hartree energ DENC   =    -49805.55147993
  -exchange      EXHF   =         0.00000000
  -V(xc)+E(xc)   XCENC  =      1301.95220673
  PAW double counting   =     12033.28159698   -12049.96224526
  entropy T*S    EENTRO =         0.00000000
  eigenvalues    EBANDS =     -5855.04506198
  atomic energy  EATOM  =     16260.93880140
  Solvation  Ediel_sol  =         0.00000000
  ---------------------------------------------------
  free energy    TOTEN  =      -554.32739402 eV

  energy without entropy =     -554.32739402  energy(sigma->0) =     -554.32739402


--------------------------------------------------------------------------------------------------------




--------------------------------------- Iteration      1(   6)  ---------------------------------------


    EDDIAG:  cpu time      4.4275: real time      4.4378
  RMM-DIIS:  cpu time     14.1403: real time     14.1533
    ORTHCH:  cpu time      0.6875: real time      0.6878
       DOS:  cpu time      0.0005: real time      0.0005
    --------------------------------------------
      LOOP:  cpu time     19.2560: real time     19.2808

 eigenvalue-minimisations  :  2560
 total energy-change (2. order) :-0.2651467E+03  (-0.2198603E+03)
 number of electron     388.0000000 magnetization       2.0000000
 augmentation part      388.0000000 magnetization       2.0000000

 Free energy of the ion-electron system (eV)
  ---------------------------------------------------
  alpha Z        PSCENC =       207.73511157
  Ewald energy   TEWEN  =     37352.32367648
  -Hartree energ DENC   =    -49805.55147993
  -exchange      EXHF   =         0.00000000
  -V(xc)+E(xc)   XCENC  =      1301.95220673
  PAW double counting   =     12033.28159698   -12049.96224526
  entropy T*S    EENTRO =         0.00000000
  eigenvalues    EBANDS =     -6120.19176201
  atomic energy  EATOM  =     16260.93880140
  Solvation  Ediel_sol  =         0.00000000
  ---------------------------------------------------
  free energy    TOTEN  =      -819.47409405 eV

  energy without entropy =     -819.47409405  energy(sigma->0) =     -819.47409405


--------------------------------------------------------------------------------------------------------




--------------------------------------- Iteration      1(   7)  ---------------------------------------


    EDDIAG:  cpu time      4.4282: real time      4.4441
  RMM-DIIS:  cpu time     14.0192: real time     14.0339
    ORTHCH:  cpu time      0.6966: real time      0.6967
       DOS:  cpu time      0.0005: real time      0.0005
    --------------------------------------------
      LOOP:  cpu time     19.1443: real time     19.1738

 eigenvalue-minimisations  :  2560
 total energy-change (2. order) :-0.7118362E+02  (-0.6871591E+02)
 number of electron     388.0000000 magnetization       2.0000000
 augmentation part      388.0000000 magnetization       2.0000000

 Free energy of the ion-electron system (eV)
  ---------------------------------------------------
  alpha Z        PSCENC =       207.73511157
  Ewald energy   TEWEN  =     37352.32367648
  -Hartree energ DENC   =    -49805.55147993
  -exchange      EXHF   =         0.00000000
  -V(xc)+E(xc)   XCENC  =      1301.95220673
  PAW double counting   =     12033.28159698   -12049.96224526
  entropy T*S    EENTRO =         0.00000000
  eigenvalues    EBANDS =     -6191.37537772
  atomic energy  EATOM  =     16260.93880140
  Solvation  Ediel_sol  =         0.00000000
  ---------------------------------------------------
  free energy    TOTEN  =      -890.65770976 eV

  energy without entropy =     -890.65770976  energy(sigma->0) =     -890.65770976


--------------------------------------------------------------------------------------------------------




--------------------------------------- Iteration      1(   8)  ---------------------------------------


    EDDIAG:  cpu time      4.4215: real time      4.4346
  RMM-DIIS:  cpu time     13.9654: real time     13.9779
    ORTHCH:  cpu time      0.6993: real time      0.7000
       DOS:  cpu time      0.0004: real time      0.0004
    --------------------------------------------
      LOOP:  cpu time     19.0867: real time     19.1129

 eigenvalue-minimisations  :  2560
 total energy-change (2. order) :-0.2877342E+02  (-0.2321258E+02)
 number of electron     388.0000000 magnetization       2.0000000
 augmentation part      388.0000000 magnetization       2.0000000

 Free energy of the ion-electron system (eV)
  ---------------------------------------------------
  alpha Z        PSCENC =       207.73511157
  Ewald energy   TEWEN  =     37352.32367648
  -Hartree energ DENC   =    -49805.55147993
  -exchange      EXHF   =         0.00000000
  -V(xc)+E(xc)   XCENC  =      1301.95220673
  PAW double counting   =     12033.28159698   -12049.96224526
  entropy T*S    EENTRO =         0.00000000
  eigenvalues    EBANDS =     -6220.14879454
  atomic energy  EATOM  =     16260.93880140
  Solvation  Ediel_sol  =         0.00000000
  ---------------------------------------------------
  free energy    TOTEN  =      -919.43112658 eV

  energy without entropy =     -919.43112658  energy(sigma->0) =     -919.43112658


--------------------------------------------------------------------------------------------------------




--------------------------------------- Iteration      1(   9)  ---------------------------------------


    EDDIAG:  cpu time      4.4341: real time      4.4386
  RMM-DIIS:  cpu time     33.4515: real time     33.4831
    ORTHCH:  cpu time      0.6850: real time      0.6861
       DOS:  cpu time      0.0003: real time      0.0003
    --------------------------------------------
      LOOP:  cpu time     38.5709: real time     38.6081

 eigenvalue-minimisations  :  6704
 total energy-change (2. order) :-0.1074642E+02  (-0.1028160E+02)
 number of electron     388.0000000 magnetization       2.0000000
 augmentation part      388.0000000 magnetization       2.0000000

 Free energy of the ion-electron system (eV)
  ---------------------------------------------------
  alpha Z        PSCENC =       207.73511157
  Ewald energy   TEWEN  =     37352.32367648
  -Hartree energ DENC   =    -49805.55147993
  -exchange      EXHF   =         0.00000000
  -V(xc)+E(xc)   XCENC  =      1301.95220673
  PAW double counting   =     12033.28159698   -12049.96224526
  entropy T*S    EENTRO =         0.00000000
  eigenvalues    EBANDS =     -6230.89521161
  atomic energy  EATOM  =     16260.93880140
  Solvation  Ediel_sol  =         0.00000000
  ---------------------------------------------------
  free energy    TOTEN  =      -930.17754366 eV

  energy without entropy =     -930.17754366  energy(sigma->0) =     -930.17754366


--------------------------------------------------------------------------------------------------------




--------------------------------------- Iteration      1(  10)  ---------------------------------------


    EDDIAG:  cpu time      4.4191: real time      4.4371
  RMM-DIIS:  cpu time     34.9575: real time     34.9883
    ORTHCH:  cpu time      0.6887: real time      0.6891
       DOS:  cpu time      0.0008: real time      0.0008
    --------------------------------------------
      LOOP:  cpu time     40.0662: real time     40.1154

 eigenvalue-minimisations  :  6985
 total energy-change (2. order) :-0.2525585E+01  (-0.2347137E+01)
 number of electron     388.0000000 magnetization       2.0000000
 augmentation part      388.0000000 magnetization       2.0000000

 Free energy of the ion-electron system (eV)
  ---------------------------------------------------
  alpha Z        PSCENC =       207.73511157
  Ewald energy   TEWEN  =     37352.32367648
  -Hartree energ DENC   =    -49805.55147993
  -exchange      EXHF   =         0.00000000
  -V(xc)+E(xc)   XCENC  =      1301.95220673
  PAW double counting   =     12033.28159698   -12049.96224526
  entropy T*S    EENTRO =         0.00000000
  eigenvalues    EBANDS =     -6233.42079629
  atomic energy  EATOM  =     16260.93880140
  Solvation  Ediel_sol  =         0.00000000
  ---------------------------------------------------
  free energy    TOTEN  =      -932.70312834 eV

  energy without entropy =     -932.70312834  energy(sigma->0) =     -932.70312834


--------------------------------------------------------------------------------------------------------




--------------------------------------- Iteration      1(  11)  ---------------------------------------


    EDDIAG:  cpu time      4.4250: real time      4.4428
  RMM-DIIS:  cpu time     35.5152: real time     35.5501
    ORTHCH:  cpu time      0.6871: real time      0.6876
       DOS:  cpu time      0.0006: real time      0.0006
    --------------------------------------------
      LOOP:  cpu time     40.6279: real time     40.6812

 eigenvalue-minimisations  :  7139
 total energy-change (2. order) :-0.3199783E+00  (-0.2909599E+00)
 number of electron     388.0000000 magnetization       2.0000000
 augmentation part      388.0000000 magnetization       2.0000000

 Free energy of the ion-electron system (eV)
  ---------------------------------------------------
  alpha Z        PSCENC =       207.73511157
  Ewald energy   TEWEN  =     37352.32367648
  -Hartree energ DENC   =    -49805.55147993
  -exchange      EXHF   =         0.00000000
  -V(xc)+E(xc)   XCENC  =      1301.95220673
  PAW double counting   =     12033.28159698   -12049.96224526
  entropy T*S    EENTRO =         0.00000000
  eigenvalues    EBANDS =     -6233.74077460
  atomic energy  EATOM  =     16260.93880140
  Solvation  Ediel_sol  =         0.00000000
  ---------------------------------------------------
  free energy    TOTEN  =      -933.02310665 eV

  energy without entropy =     -933.02310665  energy(sigma->0) =     -933.02310665


--------------------------------------------------------------------------------------------------------




--------------------------------------- Iteration      1(  12)  ---------------------------------------


    EDDIAG:  cpu time      4.3987: real time      4.4031
  RMM-DIIS:  cpu time     35.2082: real time     35.2412
    ORTHCH:  cpu time      0.6819: real time      0.6822
       DOS:  cpu time      0.0007: real time      0.0007
    CHARGE:  cpu time      0.7449: real time      0.7468
    MIXING:  cpu time      0.0052: real time      0.0052
    --------------------------------------------
      LOOP:  cpu time     41.0396: real time     41.0792

 eigenvalue-minimisations  :  7050
 total energy-change (2. order) :-0.6484835E-01  (-0.6176113E-01)
 number of electron     387.9999826 magnetization       1.9999999
 augmentation part       14.9558549 magnetization       0.0798637

 Broyden mixing:
  rms(total) = 0.54631E+01    rms(broyden)= 0.54615E+01
  rms(prec ) = 0.62292E+01
  weight for this iteration     100.00

 Free energy of the ion-electron system (eV)
  ---------------------------------------------------
  alpha Z        PSCENC =       207.73511157
  Ewald energy   TEWEN  =     37352.32367648
  -Hartree energ DENC   =    -49805.55147993
  -exchange      EXHF   =         0.00000000
  -V(xc)+E(xc)   XCENC  =      1301.95220673
  PAW double counting   =     12033.28159698   -12049.96224526
  entropy T*S    EENTRO =         0.00000000
  eigenvalues    EBANDS =     -6233.80562295
  atomic energy  EATOM  =     16260.93880140
  Solvation  Ediel_sol  =         0.00000000
  ---------------------------------------------------
  free energy    TOTEN  =      -933.08795500 eV

  energy without entropy =     -933.08795500  energy(sigma->0) =     -933.08795500


--------------------------------------------------------------------------------------------------------




--------------------------------------- Iteration      1(  13)  ---------------------------------------


    POTLOK:  cpu time      0.1675: real time      0.1682
    SETDIJ:  cpu time      0.0078: real time      0.0078
    EDDIAG:  cpu time      4.3973: real time      4.4007
  RMM-DIIS:  cpu time     51.8617: real time     51.9122
    ORTHCH:  cpu time      0.6959: real time      0.6961
       DOS:  cpu time      0.0007: real time      0.0007
    CHARGE:  cpu time      0.7612: real time      0.7619
    MIXING:  cpu time      0.0050: real time      0.0122
    --------------------------------------------
      LOOP:  cpu time     57.8971: real time     57.9598

 eigenvalue-minimisations  : 10240
 total energy-change (2. order) : 0.7472003E+02  (-0.2566218E+02)
 number of electron     387.9999879 magnetization       1.9999999
 augmentation part       11.8612012 magnetization       0.0660111

 Broyden mixing:
  rms(total) = 0.26095E+01    rms(broyden)= 0.26090E+01
  rms(prec ) = 0.28166E+01
  weight for this iteration     100.00

 eigenvalues of (default mixing * dielectric matrix)
  average eigenvalue GAMMA=   1.0723
  1.0723

 Free energy of the ion-electron system (eV)
  ---------------------------------------------------
  alpha Z        PSCENC =       207.73511157
  Ewald energy   TEWEN  =     37352.32367648
  -Hartree energ DENC   =    -50628.36592767
  -exchange      EXHF   =         0.00000000
  -V(xc)+E(xc)   XCENC  =      1343.31964363
  PAW double counting   =     21645.03108914   -21672.57197020
  entropy T*S    EENTRO =         0.00000000
  eigenvalues    EBANDS =     -5366.77834595
  atomic energy  EATOM  =     16260.93880140
  Solvation  Ediel_sol  =         0.00000000
  ---------------------------------------------------
  free energy    TOTEN  =      -858.36792161 eV

  energy without entropy =     -858.36792161  energy(sigma->0) =     -858.36792161


--------------------------------------------------------------------------------------------------------




--------------------------------------- Iteration      1(  14)  ---------------------------------------


    POTLOK:  cpu time      0.1672: real time      0.1678
    SETDIJ:  cpu time      0.0079: real time      0.0079
    EDDIAG:  cpu time      4.3788: real time      4.3845
  RMM-DIIS:  cpu time     43.2583: real time     43.2984
    ORTHCH:  cpu time      0.6851: real time      0.6860
       DOS:  cpu time      0.0008: real time      0.0008
    CHARGE:  cpu time      0.7641: real time      0.7645
    MIXING:  cpu time      0.0047: real time      0.0063
    --------------------------------------------
      LOOP:  cpu time     49.2669: real time     49.3160

 eigenvalue-minimisations  :  8293
 total energy-change (2. order) : 0.9406904E+01  (-0.1060410E+01)
 number of electron     387.9999884 magnetization       1.9999998
 augmentation part       11.5787955 magnetization       0.0635049

 Broyden mixing:
  rms(total) = 0.15025E+01    rms(broyden)= 0.15024E+01
  rms(prec ) = 0.16273E+01
  weight for this iteration     100.00

 eigenvalues of (default mixing * dielectric matrix)
  average eigenvalue GAMMA=   1.7033
  1.0313  2.3753

 Free energy of the ion-electron system (eV)
  ---------------------------------------------------
  alpha Z        PSCENC =       207.73511157
  Ewald energy   TEWEN  =     37352.32367648
  -Hartree energ DENC   =    -50932.46604522
  -exchange      EXHF   =         0.00000000
  -V(xc)+E(xc)   XCENC  =      1353.68636213
  PAW double counting   =     30326.33230341   -30358.26134061
  entropy T*S    EENTRO =         0.00000000
  eigenvalues    EBANDS =     -5059.24988681
  atomic energy  EATOM  =     16260.93880140
  Solvation  Ediel_sol  =         0.00000000
  ---------------------------------------------------
  free energy    TOTEN  =      -848.96101767 eV

  energy without entropy =     -848.96101767  energy(sigma->0) =     -848.96101767


--------------------------------------------------------------------------------------------------------




--------------------------------------- Iteration      1(  15)  ---------------------------------------


    POTLOK:  cpu time      0.1633: real time      0.1678
    SETDIJ:  cpu time      0.0078: real time      0.0078
    EDDIAG:  cpu time      4.4042: real time      4.4084
  RMM-DIIS:  cpu time     43.1446: real time     43.1880
    ORTHCH:  cpu time      0.6911: real time      0.6916
       DOS:  cpu time      0.0008: real time      0.0007
    CHARGE:  cpu time      0.7693: real time      0.7700
    MIXING:  cpu time      0.0047: real time      0.0047
    --------------------------------------------
      LOOP:  cpu time     49.1857: real time     49.2391

 eigenvalue-minimisations  :  8582
 total energy-change (2. order) : 0.4217915E+01  (-0.1453251E+01)
 number of electron     387.9999889 magnetization       1.9999998
 augmentation part       11.3340534 magnetization       0.0582254

 Broyden mixing:
  rms(total) = 0.25141E+00    rms(broyden)= 0.25122E+00
  rms(prec ) = 0.32166E+00
  weight for this iteration     100.00

 eigenvalues of (default mixing * dielectric matrix)
  average eigenvalue GAMMA=   1.4008
  2.4456  1.0687  0.6881

 Free energy of the ion-electron system (eV)
  ---------------------------------------------------
  alpha Z        PSCENC =       207.73511157
  Ewald energy   TEWEN  =     37352.32367648
  -Hartree energ DENC   =    -51346.36400130
  -exchange      EXHF   =         0.00000000
  -V(xc)+E(xc)   XCENC  =      1366.99805505
  PAW double counting   =     43852.97306781   -43889.36574307
  entropy T*S    EENTRO =         0.00000000
  eigenvalues    EBANDS =     -4649.98207087
  atomic energy  EATOM  =     16260.93880140
  Solvation  Ediel_sol  =         0.00000000
  ---------------------------------------------------
  free energy    TOTEN  =      -844.74310295 eV

  energy without entropy =     -844.74310295  energy(sigma->0) =     -844.74310295


--------------------------------------------------------------------------------------------------------




--------------------------------------- Iteration      1(  16)  ---------------------------------------


    POTLOK:  cpu time      0.1665: real time      0.1670
    SETDIJ:  cpu time      0.0078: real time      0.0078
    EDDIAG:  cpu time      4.3929: real time      4.3956
  RMM-DIIS:  cpu time     43.0149: real time     43.0557
    ORTHCH:  cpu time      0.6899: real time      0.6905
       DOS:  cpu time      0.0007: real time      0.0007
    CHARGE:  cpu time      0.7652: real time      0.7656
    MIXING:  cpu time      0.0050: real time      0.0050
    --------------------------------------------
      LOOP:  cpu time     49.0429: real time     49.0880

 eigenvalue-minimisations  :  8430
 total energy-change (2. order) : 0.2513817E+00  (-0.1314937E+00)
 number of electron     387.9999890 magnetization       1.9999998
 augmentation part       11.3328497 magnetization       0.0598277

 Broyden mixing:
  rms(total) = 0.14727E+00    rms(broyden)= 0.14725E+00
  rms(prec ) = 0.22311E+00
  weight for this iteration     100.00

 eigenvalues of (default mixing * dielectric matrix)
  average eigenvalue GAMMA=   1.3511
  2.3586  1.4213  0.9798  0.6448

 Free energy of the ion-electron system (eV)
  ---------------------------------------------------
  alpha Z        PSCENC =       207.73511157
  Ewald energy   TEWEN  =     37352.32367648
  -Hartree energ DENC   =    -51380.70933361
  -exchange      EXHF   =         0.00000000
  -V(xc)+E(xc)   XCENC  =      1367.05436867
  PAW double counting   =     44028.40222832   -44064.48274314
  entropy T*S    EENTRO =         0.00000000
  eigenvalues    EBANDS =     -4615.75383090
  atomic energy  EATOM  =     16260.93880140
  Solvation  Ediel_sol  =         0.00000000
  ---------------------------------------------------
  free energy    TOTEN  =      -844.49172122 eV

  energy without entropy =     -844.49172122  energy(sigma->0) =     -844.49172122


--------------------------------------------------------------------------------------------------------




--------------------------------------- Iteration      1(  17)  ---------------------------------------


    POTLOK:  cpu time      0.1681: real time      0.1692
    SETDIJ:  cpu time      0.0077: real time      0.0077
    EDDIAG:  cpu time      4.3896: real time      4.3934
  RMM-DIIS:  cpu time     40.7433: real time     40.7812
[...]
  373                  map_gather                            0.000889                  2   8
  374                  m_alltoallv_z                         0.001607                  2   8
  375                  map_scatter                           0.000296                  2   8
  376          m_max_i                               0.000093                          1   4
  377          m_sumb_d                              0.000008                          2   4
  378          pothar                                0.000867                          1   4
  379            m_sumb_d                              0.000199                        1   5
  380        brmix                                 0.015618                            1   3
  381          m_max_i                               0.000072                          1   4
  382          m_sumb_d                              0.000201                          6   4
  383          brpre                                 0.000053                          2   4
  384          setg0                                 0.000453                          1   4
  385          broyd                                 0.010967                          1   4
  386            m_sumb_d                              0.004197                       31   5
  387            brget                                 0.002665                      153   5
  388            brsav                                 0.000407                       29   5
  389        m_bcast_d                             0.000050                            2   3
  390      potlok                                0.143749                              1   2
  391        fft3d_mpi                             0.064081                           26   3
  392          fftbrc_mpi                            0.061710                         26   4
  393            fftbas_plan_mpi                       0.061695                       26   5
  394              dfftw_execute                         0.013630                     78   6
  395              map_forward                           0.022753                     28   6
  396                map_gather                            0.005504                   16   7
  397                m_alltoallv_z                         0.015183                   16   7
  398                map_scatter                           0.002022                   16   7
  399              map_backward                          0.021370                     24   6
  400                map_gather                            0.004637                   12   7
  401                m_alltoallv_z                         0.014519                   12   7
  402                map_scatter                           0.002182                   12   7
  403        m_sumb_d                              0.000379                            5   3
  404        m_max_i                               0.000492                            1   3
  405        pothar                                0.001219                            1   3
  406          m_sumb_d                              0.000331                          1   4
  407        m_bcast_d                             0.003554                            2   3
  408      set_dd_magatom                        0.000000                              1   2
  409      set_dd_paw                            0.005836                              1   2
  410        set_rsgf_all                          0.000001                            1   3
  411        rad_aug_charge                        0.000009                            2   3
  412        rad_pot                               0.002575                            2   3
  413          rad_lda_xc_spin                       0.002187                          2   4
  414          rad_gga_xc_spin                       0.000284                          2   4
  415        rad_pot_weight                        0.000013                            2   3
  416        rad_proj                              0.000060                            4   3
  417        rad_aug_proj                          0.000008                            2   3
  418        m_sumb_d                              0.002798                            7   3
  419      densta                                0.000116                              1   2
  420        setwdes                               0.000000                            2   3
  421        m_sumb_d                              0.000082                            2   3
 
 Flat profile
 ============
 
             routine name                   CPU           calls
 ---------------------------------------------------------------
 vnlac0|dgemv                          177.785927     1200957
 proj1                                 174.579587       13723
 crexp_mul_wave                        137.707381     1331131
 work_mul_crexp                        126.960882     1200957
 dfftw_execute                         106.783722      137520
 m_alltoallv_z                          58.475015       45942
 vhamil                                 56.819276       18141
 m_sumb_d                               56.205772      130043
 fftwav_mpi                             42.835628       26893
 phase                                  32.475259         416
 total_time                             31.186856           1
 map_gather                             29.656690       45942
 eccp                                   26.295520       23385
 map_scatter                            25.250567       45942
 w1_copy                                24.921308       37143
 w1_daxpy                               24.441710       24246
 w1_dscal                               21.126894       31986
 m_alltoall_d                           20.630721       64160
 fornl                                  18.826660           1
 w1_gaxpy                               18.595853       24840
 map_forward                            17.341147       54548
 lincom                                 17.303843         730
 orth1                                  16.860849        5840
 fftbas_plan_mpi                        11.926822       45840
 wfinit                                 11.285146           1
 redis_pw                                7.897693        6860
 fftext_mpi                              6.448285       18141
 apply_precond                           5.262860       30342
 kinhamil                                4.770664       18141
 eddiag                                  4.346974          36
 w1_gemv                                 2.884215       35066
 pw_charge                               2.782187        3250
 potlok                                  2.005816          26
 vnlac0                                  1.872650       12381
 hamiltmu                                1.863381        3421
 m_bcast_z                               1.647319        9341
 cnorma                                  1.633343       17625
 pdssyex_zheevx                          1.415400         110
 i2                                      1.381548        3421
 sphpro_fast                             1.312399           2
 w1_dot                                  1.295827        5502
 spher                                   0.995618          20
 choleski                                0.984149         370
 elmin                                   0.895170           1
 setup_precond                           0.880165        5760
 overl1                                  0.276540       29914
 zhegv                                   0.238598        6621
 eddrmm                                  0.232909          36
 orthch                                  0.180917          37
 fft3d_mpi                               0.149520       45840
 soft_charge                             0.149050          25
 eccp_nl                                 0.145168       17625
 truncate_high_frequency_w1              0.140366       18141
 i3                                      0.126800        3421
 map_backward                            0.119214       37132
 m_bcast_d                               0.100610          54
 brmix                                   0.076861          25
 setdij_                                 0.074492          53
 potxc                                   0.073019           1
 augmentation_charge                     0.069392          25
 rad_lda_xc_spin                         0.060624          54
 w1_projall                              0.060421        3421
 fftwav_w1                               0.058300       26893
 newband                                 0.056458        3781
 fftbas_mpi                              0.046567       45034
 broyd                                   0.043770          25
 overl                                   0.041287         730
 forhar                                  0.036992           2
 set_charge                              0.028940          25
 brget                                   0.028741        1928
 strkin                                  0.027808           1
 pothar                                  0.027590          27
 hamilt_local                            0.026221        5760
 i1                                      0.019963        3421
 forloc                                  0.019655           1
 m_max_i                                 0.017537          78
 redis_proj                              0.016457        2190
 stufak                                  0.015010           1
 setg0                                   0.013810          27
 strenl                                  0.013018           1
 depsum                                  0.011408          25
 set_dd_paw                              0.010728          27
 fft_gq                                  0.010408          25
 rad_gga_xc_spin                         0.007887          54
 brsav                                   0.007306         429
 force_and_stress                        0.005719           1
 chggra                                  0.005056           1
 strehar                                 0.004809           1
 rad_lda_xc                              0.004709          24
 setwdes                                 0.004452        9946
 strelo                                  0.004328           1
 rad_pot                                 0.003242          78
 rsp                                     0.003114           1
 bandgap                                 0.002811           1
 rad_proj                                0.001841         120
 rad_gga_xc                              0.001517          24
 densta                                  0.001455          37
 brpre                                   0.001420          50
 splcof                                  0.000780          53
 rad_pot_weight                          0.000359          66
 fewald                                  0.000330           1
 proj                                    0.000328           5
 fftbrc_mpi                              0.000326         806
 rad_aug_charge                          0.000241          57
 rcp                                     0.000213           1
 rad_aug_proj                            0.000207          60
 kpar_sync_all                           0.000145           1
 brgrid                                  0.000120           1
 fordep                                  0.000057           1
 shift_bands_between_low_high            0.000038         110
 proall                                  0.000028           1
 crpa_reader                             0.000025           1
 vectorpot                               0.000023          26
 set_rsgf_all                            0.000014          27
 fermat_razor                            0.000005           1
 set_dd_magatom                          0.000002          27
 rotate_active_occupied_orbital          0.000002           1
 redis_pw_over_bands                     0.000001           1
 splval                                  0.000000           3
 ---------------------------------------------------------------
  summed up times    1341.7627751827240     
 
 Accumulative profile
 ====================
 
             routine name                   CPU           calls
 ---------------------------------------------------------------
 total_time                           1341.762775           1
 elmin                                1236.950908           1
 eddrmm                               1030.488582          36
 hamiltmu                              417.485490        3421
 proj1                                 315.058070       13723
 vnlac0                                307.845076       12381
 w1_projall                            284.179986        3421
 fft3d_mpi                             249.749590       45840
 fftbas_plan_mpi                       249.553177       45840
 fftbas_mpi                            247.668738       45034
 fftwav_w1                             190.848057       26893
 fftwav_mpi                            190.789757       26893
 vnlac0|dgemv                          177.785927     1200957
 eddiag                                158.319750          36
 crexp_mul_wave                        137.707381     1331131
 i2                                    128.012535        3421
 work_mul_crexp                        126.960882     1200957
 kinhamil                              111.011008       18141
 dfftw_execute                         106.783722      137520
 fftext_mpi                            106.240344       18141
 map_forward                            83.559368       54548
 i3                                     77.608765        3421
 hamilt_local                           60.253986        5760
 m_alltoallv_z                          58.475015       45942
 vhamil                                 56.819276       18141
 m_sumb_d                               56.205772      130043
 force_and_stress                       54.102802           1
 newband                                50.421784        3781
 map_backward                           47.283265       37132
 strenl                                 33.782949           1
 phase                                  32.475259         416
 eccp                                   30.346160       23385
 map_gather                             29.656690       45942
 redis_pw                               26.655511        6860
 orthch                                 26.073117          37
 map_scatter                            25.250567       45942
 w1_copy                                24.921308       37143
 w1_daxpy                               24.441710       24246
 w1_dscal                               21.126894       31986
 m_alltoall_d                           20.630721       64160
 fornl                                  19.260879           1
 set_charge                             19.024897          25
 soft_charge                            18.763847          25
 w1_gaxpy                               18.595853       24840
 lincom                                 17.303843         730
 orth1                                  16.860849        5840
 wfinit                                 12.832381           1
 apply_precond                           5.262860       30342
 potlok                                  3.849320          26
 proall                                  3.650401           1
 w1_gemv                                 3.552644       35066
 i1                                      3.367792        3421
 proj                                    3.230525           5
 pw_charge                               2.782187        3250
 cnorma                                  2.651836       17625
 fftbrc_mpi                              1.931332         806
 redis_proj                              1.889359        2190
 m_bcast_z                               1.647319        9341
 pdssyex_zheevx                          1.415405         110
 w1_dot                                  1.368004        5502
 sphpro_fast                             1.338404           2
 spher                                   0.995618          20
 choleski                                0.984149         370
 setup_precond                           0.949166        5760
 overl1                                  0.276540       29914
 zhegv                                   0.238598        6621
 brmix                                   0.220587          25
 augmentation_charge                     0.215250          25
 set_dd_paw                              0.162800          27
 eccp_nl                                 0.145168       17625
 truncate_high_frequency_w1              0.140366       18141
 potxc                                   0.127592           1
 broyd                                   0.118191          25
 fft_gq                                  0.100710          25
 m_bcast_d                               0.100610          54
 setdij_                                 0.091336          53
 rad_pot                                 0.077980          78
 rad_lda_xc_spin                         0.060624          54
 overl                                   0.041287         730
 forhar                                  0.038064           2
 pothar                                  0.032500          27
 brget                                   0.028741        1928
 strkin                                  0.028542           1
 forloc                                  0.020042           1
 m_max_i                                 0.017537          78
 depsum                                  0.016860          25
 stufak                                  0.015010           1
 setg0                                   0.013810          27
 chggra                                  0.012687           1
 fordep                                  0.009226           1
 densta                                  0.007913          37
 rad_gga_xc_spin                         0.007887          54
 brsav                                   0.007306         429
 strehar                                 0.004864           1
 rad_lda_xc                              0.004709          24
 fewald                                  0.004473           1
 setwdes                                 0.004452        9946
 strelo                                  0.004340           1
 rsp                                     0.003114           1
 bandgap                                 0.002811           1
 rad_proj                                0.001841         120
 rad_gga_xc                              0.001517          24
 brpre                                   0.001420          50
 splcof                                  0.000780          53
 rad_pot_weight                          0.000359          66
 rad_aug_charge                          0.000241          57
 rcp                                     0.000213           1
 rad_aug_proj                            0.000207          60
 kpar_sync_all                           0.000145           1
 brgrid                                  0.000139           1
 shift_bands_between_low_high            0.000038         110
 crpa_reader                             0.000025           1
 vectorpot                               0.000023          26
 set_rsgf_all                            0.000014          27
 fermat_razor                            0.000005           1
 set_dd_magatom                          0.000002          27
 rotate_active_occupied_orbital          0.000002           1
 redis_pw_over_bands                     0.000001           1
 splval                                  0.000000           3
 ---------------------------------------------------------------
 
Profiling took   1.009434  0.721591  0.000911  0.000858 seconds
Profiling took   1.613450 seconds
